# vtk DataFile Version 2.0 
Volume data
ASCII
DATASET STRUCTURED_POINTS
DIMENSIONS 300 300 1
SPACING 1 1 1
ORIGIN 0 0 0
POINT_DATA 90000
SCALARS volume_scalars double
LOOKUP_TABLE default 
3.3234137399757585E-4 2.726033672979947E-4 2.2306152172195555E-4 1.820810567424267E-4 1.4826941083733963E-4 1.2044398050621571E-4 9.760351448586662E-5 7.890286054531895E-5 6.363076738476501E-5 5.119045353886801E-5
4.1082667810322955E-5 3.2890980769185726E-5 2.6269063494815392E-5 2.0929727367965452E-5 1.6635516802091053E-5 1.3190664893150492E-5 1.0434239711758881E-5 8.234326084840946E-6 6.483104009641996E-6 5.092700164919914E-6
3.991703237379877E-6 3.1222469137980306E-6 2.43757638374322E-6 1.9000250653573511E-6 1.4793380401142377E-6 1.1512874110079793E-6 8.965325430239894E-7 6.996849734754767E-7 5.485437656542437E-7 4.334722967367853E-7
3.468919940456402E-7 2.828724345583675E-7 2.3680056966392494E-7 2.051146951420498E-7 1.8509121506449416E-7 1.7467430269494808E-7 1.7234029133096499E-7 1.7699007819826902E-7 1.8786403493270322E-7 2.0447492422040395E-7
2.2655515486628377E-7 2.5401539401940125E-7 2.869121189931773E-7 3.254221523257575E-7 3.6982259978342815E-7 4.2047491670931407E-7 4.778120760040569E-7 5.423280116783452E-7 6.145686742246721E-7 6.951241654404313E-7
7.846215269650229E-7 8.837178437679141E-7 9.9309339532961E-7 1.1134446467067975E-6 1.2454769218252496E-6 1.3898966444045217E-6 1.547403069622375E-6 1.7186794633141013E-6 1.904383716176058E-6 2.1051384088236357E-6
2.321520370121458E-6 2.5540497962347673E-6 2.8031790214541208E-6 3.069281053987227E-6 3.352638010445351E-6 3.653429601440248E-6 3.971721837246469E-6 4.307456136523122E-6 4.6604390322545084E-6 5.030332676980919E-6
5.416646353685251E-6 5.818729199047466E-6 6.235764341898388E-6 6.666764651384826E-6 7.1105702764702595E-6 7.565848140905259E-6 8.031093535778171E-6 8.50463392538236E-6 8.984635051709516E-6 9.469109388813026E-6
9.955926961110847E-6 1.0442828500048854E-5 1.0927440872155881E-5 1.1407294669206519E-5 1.187984380884849E-5 1.2342486952575966E-5 1.2792590508288423E-5 1.3227512947818485E-5 1.364463013666368E-5 1.4041361344590508E-5
1.4415195582587057E-5 1.4763717894520593E-5 1.5084635221374614E-5 1.5375801452530356E-5 1.5635241282484896E-5 1.5861172502769304E-5 1.6052026377563702E-5 1.6206465777354217E-5 1.6323400777504516E-5 1.6402001467228516E-5
1.6441707758400024E-5 1.6442236032029208E-5 1.640358251207647E-5 1.632602331046716E-5 1.621011114256493E-5 1.605666876777158E-5 1.5866779264164725E-5 1.564177329800576E-5 1.5383213597457404E-5 1.5092876883938691E-5
1.4772733553322877E-5 1.442492543190016E-5 1.4051741958079487E-5 1.3655595159759819E-5 1.3238993808906521E-5 1.2804517139043176E-5 1.2354788508212934E-5 1.1892449379749872E-5 1.1420133976355139E-5 1.094044494007482E-5
1.0455930302521701E-5 9.969062036878991E-6 9.482216426755268E-6 8.997656447766161E-6 8.517516316774952E-6 8.043788322009388E-6 7.578312005750459E-6 7.122765730886751E-6 6.6786606242178895E-6 6.247336853770228E-6
5.829962165278995E-6 5.427532575017119E-6 5.040875092846805E-6 4.670652331173741E-6 4.317368842742069E-6 3.981379023186451E-6 3.6628964131470904E-6 3.362004239687358E-6 3.0786670478227623E-6 2.812743290238256E-6
2.563998766797315E-6 2.3321208353014967E-6 2.1167333512441335E-6 1.9174123371671715E-6 1.73370243188776E-6 1.565134226600707E-6 1.411242659055744E-6 1.2715867091154057E-6 1.1457707195652184E-6 1.033467755694814E-6
9.34445516578795E-7 8.485954208776654E-7 7.759656110700027E-7 7.167987529931541E-7 6.715756529865265E-7 6.410658732090344E-7 6.263866970042468E-7 6.290719803410232E-7 6.51152621751778E-7 6.952505906600312E-7
7.64688670692305E-7 8.636182978586196E-7 9.971680997706862E-7 1.171615966679359E-6 1.3945877021747376E-6 1.6752855036923612E-6 2.0247497018575963E-6 2.456157333006795E-6 2.985161219207449E-6 3.630273271444509E-6
4.413295699501788E-6 5.359803690180435E-6 6.499682886368763E-6 7.867724644645954E-6 9.504281549514203E-6 1.1455984998814702E-5 1.3776525828649279E-5 1.6527497899576453E-5 1.9779303303265585E-5 2.361211635728634E-5
2.8116901826174877E-5 3.339648083510379E-5 3.956663573011386E-5 4.6757242694752797E-5 5.511341827411801E-5 6.479666311002869E-5 7.598598319180382E-5 8.887896582341232E-5 1.0369278435853545E-4 1.2066510263120061E-4
1.400548469935997E-4 1.6214281105825313E-4 1.8723205573294415E-4 2.1564806504670075E-4 2.477386167133907E-4 2.838733254904135E-4 3.2444281728899867E-4 3.6985749280294073E-4 4.2054584126101374E-4 4.7695226788083974E-4
5.395344027989663E-4 6.087598647430164E-4 6.851024595413593E-4 7.690378017475168E-4 8.610383571691976E-4 9.615679148757239E-4 0.0010710755092103541 0.0011899888253092243 0.0013187071354347582 0.0014575938278313652
0.0016069686045250724 0.0017670994391962421 0.0019381944006010977 0.00212039346062072 0.0023137604184725797 0.002518275083518576 0.002733825868033917 0.0029602029478668908 0.0031970921527519464 0.0034440697488084234
0.0037005982731894527 0.003966023574732904 0.004239573204676747 0.004520356287994487 0.004807364988735034 0.005099477662072558 0.005395463761845026 0.005693990545548111 0.0059936315895189295 0.006292877095944294
0.006590145940997756 0.006883799380549958 0.0071721562972577885 0.007453509841197793 0.007726145286353781 0.007988358897963071 0.00823847758169698 0.00847487906555585 0.008696012349768812 0.008900418149361052
0.00908674904871796 0.009253789087623109 0.009400472503908438 0.009525901368903352 0.00962936186801966 0.009710338999619029 0.009768529490195743 0.009803852752157869 0.009816459741287465 0.009806739603408473
0.00977532403294231 0.009723089298923553 0.00965115592573352 0.009560886045397213 0.009453878464969971 0.009331961515629943 0.009197183769052092 0.009051802721104844 0.0088982715527107 0.008739224082879707
0.008577458029704253 0.008415916691945717 0.008257669157394865 0.00810588913527299 0.0079638324995313 0.007834813619089892 0.00772218054099394 0.007629289084339501 0.00755947589779575 0.007516030532708628
0.007502166588065756 0.007520991993806039 0.007575478515611394 0.007668430587693601 0.007802453610151668 0.007979921883861369 0.0082029463978622 0.008473342730780322 0.008792599377591435 0.00916184686430495
0.009581828064000273 0.010052870175920178 0.010574858872736095 0.011147215157297085 0.01176887549682613 0.012438275817419239 0.013153339942820051 0.01391147304707203 0.014709560659457766 0.015543973711251463
0.016410580046896977 0.017304762737517736 0.018221445433021052 0.01915512487195625 0.020099910537821612 0.02104957130936295 0.02199758880377997 0.022937216959302374 0.023861547251325145 0.024763578788434184
3.310442000594516E-4 2.7153937116957647E-4 2.221909074218489E-4 1.8137040964250222E-4 1.4769075232882157E-4 1.1997394860784563E-4 9.72226561308281E-5 7.859502246538313E-5 6.338257367187808E-5 5.0990859089643334E-5
4.092257793493841E-5 3.2762928263718146E-5 2.6166935428700235E-5 2.084853472218961E-5 1.657120090714578E-5 1.3139935358652026E-5 1.0394439213326013E-5 8.203317980714977E-6 6.459179302860026E-6 5.074500810386974E-6
3.978159221075652E-6 3.112524907944289E-6 2.431038111453317E-6 1.8961937954459622E-6 1.477871881585247E-6 1.1519582912850638E-6 8.992099380218376E-7 7.043236146369684E-7 5.551746823177057E-7 4.4219666457001733E-7
3.5787735441961156E-7 2.9635092798040443E-7 2.530688908265417E-7 2.245355295980216E-7 2.0809595961056459E-7 2.0176690462777413E-7 2.0410206703723206E-7 2.1408539010263529E-7 2.3104671855977313E-7 2.545953648204012E-7
2.8456791640188026E-7 3.2098730292900845E-7 3.6403070158957666E-7 4.140043184696051E-7 4.7132345706999855E-7 5.364965892866746E-7 6.101123907562851E-7 6.928289023127818E-7 7.853641412574171E-7 8.884876176485102E-7
1.0030123180467301E-6 1.1297868072146687E-6 1.2696871713604043E-6 1.423608588049491E-6 1.5924563606425472E-6 1.7771363012385626E-6 1.9785443873290557E-6 2.197555655000595E-6 2.4350123265189733E-6 2.69171120314701E-6
2.9683903854953427E-6 3.265715413771249E-6 3.584264948983309E-6 3.924516143334616E-6 4.28682987342674E-6 4.67143603313528E-6 5.0784191036676906E-6 5.507704235889708E-6 5.95904409400078E-6 6.43200671954351E-6
6.9259646800646905E-6 7.440085767070296E-6 7.973325502867312E-6 8.524421705182437E-6 9.091891341920931E-6 9.67402988602989E-6 1.0268913352243833E-5 1.0874403163748184E-5 1.1488153957877387E-5 1.210762439639648E-5
1.273009099837472E-5 1.335266496295813E-5 1.3972311896421267E-5 1.4585874303769856E-5 1.5190096651001212E-5 1.5781652751096014E-5 1.6357175176125903E-5 1.6913286350734996E-5 1.744663093986752E-5 1.7953909107087237E-5
1.8431910190179194E-5 1.887754631883439E-5 1.9287885485814786E-5 1.966018357863676E-5 1.9991914883832303E-5 2.0280800590387044E-5 2.0524834842907643E-5 2.0722307928121518E-5 2.087182621990322E-5 2.097232855739522E-5
2.1023098786986E-5 2.1023774260787525E-5 2.0974350150539354E-5 2.087517950516049E-5 2.0726969050998924E-5 2.0530770804678997E-5 2.0287969637803905E-5 2.0000266999159193E-5 1.9669661062085298E-5 1.9298423621059876E-5
1.888907411111229E-5 1.8444351165523647E-5 1.7967182160575387E-5 1.7460651220344525E-5 1.6927966169379052E-5 1.6372424926419648E-5 1.5797381828291456E-5 1.5206214360021429E-5 1.460229074568529E-5 1.398893882519491E-5
1.3369416606089399E-5 1.2746884837422682E-5 1.2124381906176711E-5 1.1504801306471704E-5 1.089087187943805E-5 1.0285140968205749E-5 9.689960579286305E-6 9.107476589848154E-6 8.539620991129737E-6 7.988107112506594E-6
7.454427729444432E-6 6.939855922515153E-6 6.445448524498286E-6 5.9720519688804E-6 5.520310336224456E-6 5.090675385226424E-6 4.68341835302685E-6 4.298643314639072E-6 3.936301904274494E-6 3.59620922192849E-6
3.2780607768663957E-6 2.9814503556533493E-6 2.7058887461722436E-6 2.4508233007945217E-6 2.2156583817034993E-6 1.9997767996055825E-6 1.8025624340850034E-6 1.623424310153563E-6 1.4618225017121249E-6 1.3172963393633723E-6
1.1894955180595568E-6 1.078214830245641E-6 9.834333932841237E-7 9.053593967959184E-7 8.444815667829575E-7 8.016287294853614E-7 7.780390590586446E-7 7.75440809135661E-7 7.961465584541489E-7 8.431632436313994E-7
9.20320505712015E-7 1.032420138221295E-6 1.1854096889438112E-6 1.3865835300736942E-6 1.6448149648951308E-6 1.9708231753355506E-6 2.377479023495236E-6 2.8801538897220696E-6 3.497115846258852E-6 4.249977513391926E-6
5.1641999070322095E-6 6.2696564437624296E-6 7.601261001148063E-6 9.199663515961173E-6 1.1112016018641337E-5 1.3392811226384199E-5 1.6104794827801127E-5 1.931995136853126E-5 2.3120562171148875E-5 2.760033197912504E-5
3.286557899282604E-5 3.903648066059913E-5 4.624836500191516E-5 5.4653034382607364E-5 6.442010555434625E-5 7.5738346442368E-5 8.881698665973385E-5 1.0388697509857234E-4 1.2120215426773206E-4 1.4104031739490682E-4
1.6370411078594184E-4 1.8952174064436374E-4 2.1884744062179167E-4 2.52061653926836E-4 2.895708820063154E-4 3.318071507734378E-4 3.792270452394905E-4 4.3231026435272893E-4 4.915576499968774E-4 5.574886475760559E-4
6.306381605184399E-4 7.115527674491053E-4 8.007862787650746E-4 8.988946189085429E-4 0.0010064300317528408 0.0011239346191199314 0.0012519332364186713 0.0013909257845583511 0.001541378953428486 0.0017037174890659889
0.0018783150738278004 0.0020654849260760017 0.002265470242649498 0.0024784346232932996 0.00270445263077317 0.0029435006531386503 0.0031954482450313394 0.003460050132604298 0.003736939071091668 0.004025619744960215
0.004325463897564793 0.004635706870075154 0.004955445717988102 0.005283639057739164 0.005619108775843276 0.005960543708807975 0.00630650537407854 0.006655435800916708 0.0070056674759262985 0.007355435381566949
0.0077028910681852985 0.008046118661662095 0.008383152670600505 0.008711997419975992 0.00903064790325045 0.009337111813018266 0.009629432482150571 0.009905712443904625 0.010164137301238335 0.010402999583151292
0.010620722259652817 0.010815881587154554 0.010987228962741027 0.011133711478739603 0.011254490887960721 0.011348960714395118 0.011416761273357098 0.011457792398221039 0.011472223707058787 0.011460502280600398
0.011423357661903649 0.011361804126802542 0.011277140211502832 0.011170945518558809 0.011045074853951196 0.010901649775286305 0.010743047653614083 0.010571888368585476 0.010391018768427253 0.01020349503253378
0.010012563075633446 0.0098216371289975 0.009634276626762441 0.009454161515084613 0.009285066089658218 0.009130831454364554 0.008995336681822404 0.008882468746753245 0.008796091296707744 0.00874001232308371
0.008717950799610475 0.008733502366484704 0.008790104156755936 0.008890998887704397 0.009039198373803726 0.00923744665901299 0.009488183013797565 0.009793505095241892 0.010155132625316386 0.010574372000870315
0.011052082307020102 0.011588643260820953 0.012183925661823056 0.012837264967619302 0.013547438643109934 0.014312647949390231 0.015130504839591207 0.015998024612694846 0.01691162494076564 0.017867131829181464
0.018859792992912246 0.019884299034948316 0.02093481269659419 0.02200500631521088 0.0230881074755073 0.024176952678718736 0.02526404868364593 0.02634164099874989 0.027401788829901397 0.028436445618829458
3.2909871170258657E-4 2.6994359768008243E-4 2.2088516294714654E-4 1.8030457888304236E-4 1.4682287271708283E-4 1.1926898136858602E-4 9.665142482981355E-5 7.813329942608437E-5 6.30102963818688E-5 5.069146040588244E-5
4.06824155107567E-5 3.2570800146201156E-5 2.601367020371389E-5 2.0726645909740554E-5 1.647459652946062E-5 1.306367471724228E-5 1.0334529921390495E-5 8.156547207140361E-6 6.422973998638794E-6 5.04681241315351E-6
3.957368974891115E-6 3.0973664999611976E-6 2.420534821277266E-6 1.8896077834275401E-6 1.474663615263528E-6 1.1517544308121672E-6 9.017782773099077E-7 7.095539104598899E-7 5.630644035126041E-7 4.5284086221886095E-7
3.7146199541214114E-7 3.131491522054728E-7 2.734397495467191E-7 2.4892484209348165E-7 2.370389893492251E-7 2.358926071333833E-7 2.441387011106699E-7 2.60867313684011E-7 2.8552221166747287E-7 3.1783533585490645E-7
3.577753556929131E-7 4.055073496473276E-7 4.6136118785498184E-7 5.25806648405274E-7 5.99433669366861E-7 6.829364402001548E-7 7.771002809896066E-7 8.82790456564261E-7 1.000942233940879E-6 1.1325516230580896E-6
1.2786663486598027E-6 1.440376690547389E-6 1.618805904452652E-6 1.8150999999030499E-6 2.0304167074030126E-6 2.2659135172143036E-6 2.5227347176648993E-6 2.8019974035098766E-6 3.104776465304644E-6 3.4320886096125376E-6
3.7848754974672877E-6 4.163986124924823E-6 4.570158604650864E-6 5.004001541014875E-6 5.465975222676761E-6 5.956372885632385E-6 6.475302325521001E-6 7.022668160035887E-6 7.5981550598430156E-6 8.201212278831769E-6
8.831039821164203E-6 9.486576582886527E-6 1.0166490799341105E-5 1.0869173115906242E-5 1.1592732578470544E-5 1.2334995811453722E-5 1.3093509615220418E-5 1.3865547171691247E-5 1.4648117997317627E-5 1.543798172702496E-5
1.6231665752104908E-5 1.7025486670384087E-5 1.781557543950838E-5 1.8597906055186924E-5 1.936832750717502E-5 2.012259869815233E-5 2.0856425946020583E-5 2.156550263005453E-5 2.224555048729555E-5 2.289236201900229E-5
2.350184342916137E-5 2.4070057489149066E-5 2.4593265705545605E-5 2.50679691625445E-5 2.5490947416802337E-5 2.5859294841112816E-5 2.617045384383167E-5 2.6422244433119702E-5 2.661288964810335E-5 2.6741036442005853E-5
2.6805771673954857E-5 2.6806632945071508E-5 2.6743614098964237E-5 2.661716529510394E-5 2.642818765386833E-5 2.617802256238162E-5 2.586843581870953E-5 2.550159687661919E-5 2.5080053532194408E-5 2.460670246547489E-5
2.4084756113505945E-5 2.3517706404520797E-5 2.290928592544655E-5 2.22634271258234E-5 2.1584220180137495E-5 2.0875870137362143E-5 2.0142653981339356E-5 1.938887820896098E-5 1.8618837505615443E-5 1.783677505999804E-5
1.7046845014268985E-5 1.6253077491999076E-5 1.5459346586804672E-5 1.4669341630570018E-5 1.3886541993268909E-5 1.3114195598216497E-5 1.2355301268668574E-5 1.1612594955538164E-5 1.0888539833025774E-5 1.0185320190442046E-5
9.504838995595248E-6 8.848718958810556E-6 8.218306887783593E-6 7.614681092723019E-6 7.038661579125301E-6 6.4908227524274485E-6 5.971508354948745E-6 5.4808483611016496E-6 5.0187775718864125E-6 4.5850556741862315E-6
4.179288564330313E-6 3.8009507787735355E-6 3.449408927568272E-6 3.123946088654174E-6 2.8237871930242336E-6 2.548125512807466E-6 2.296150456623248E-6 2.0670769797219026E-6 1.8601770310674168E-6 1.6748135863939722E-6
1.5104779562259692E-6 1.3668312118009124E-6 1.243750740699253E-6 1.141383128644437E-6 1.0602047651457295E-6 1.001091788958473E-6 9.654012249500712E-7 9.550654166561508E-7 9.727021277706086E-7 1.021742969470528E-6
1.1065831063516201E-6 1.2327554982667235E-6 1.407133243663363E-6 1.6381638957841997E-6 1.9361399183560043E-6 2.3135097223616406E-6 2.78523396841755E-6 3.3691920163439925E-6 4.08664353875223E-6 4.9627503707697E-6
6.027163623179881E-6 7.314680919131E-6 8.865978301351174E-6 1.0728420872357701E-5 1.2956955548517911E-5 1.56150884038642E-5 1.8775947925755894E-5 2.2523434077801977E-5 2.6953451344509165E-5 3.2175221899332116E-5
3.831267268076575E-5 4.550588747404544E-5 5.3912612081246305E-5 6.370979733210209E-5 7.509516106486828E-5 8.828874632686887E-5 1.0353444895765739E-4 1.2110148348871607E-4 1.4128575200261385E-4 1.6441107633812554E-4
1.9083024991829877E-4 2.2092586164368526E-4 2.5511084087466885E-4 2.938286696789516E-4 3.375532064059329E-4 3.867880634383199E-4 4.4206548183360134E-4 5.039446466720581E-4 5.730093894326665E-4 6.49865227768254E-4
7.351356987694448E-4 8.29457949288362E-4 9.334775561980528E-4 0.0010478425606107974 0.0011731967130389355 0.0013101719411740236 0.0014593800682447394 0.0016214038275912108 0.0017967872379025703 0.0019860254231820434
0.002189553981548633 0.0024077380270195107 0.0026408610479600274 0.0028891137444162305 0.0031525830235098677 0.0034312413469169164 0.0037249366366081697 0.0040333829539640625 0.004356152172583036 0.004692666866134959
0.005042194629092937 0.005403844039825652 0.005776562462168447 0.006159135863159126 0.006550190801195763 0.006948198710662233 0.007351482576426628 0.0077582260550424775 0.008166485059606435 0.008574201782802627
0.008979221088561107 0.009379309157932733 0.009772174230257932 0.01015548923754456 0.010526916089242189 0.010884131327352041 0.011224852839036115 0.011546867286483763 0.011848057892541519 0.012126432206139558
0.012380149464311452 0.012607547167862068 0.01280716649554144 0.012977776196761872 0.013118394625068126 0.013228309603138488 0.013307095844267425 0.013354629694091695 0.01337110099866169 0.013357021949606893
0.013313232802810139 0.013240904412375475 0.013141537565454693 0.013016959144467231 0.012869315180296862 0.012701060892231488 0.012514947836980369 0.01231400830954224 0.012101537152753595 0.0118810711400391
0.011656366097521837 0.011431371927814446 0.011210205689352944 0.010997122873145006 0.01079648700457438 0.010612737682885079 0.01045035715671232 0.010313835522123012 0.010207634621637957 0.010136150720093582
0.01010367603725516 0.010114359228869878 0.01017216492809795 0.010280832488376569 0.010443834106743438 0.01066433255302732 0.010945138784201062 0.011288669783232326 0.011696907026165302 0.012171356047726522
0.012713007641927312 0.013322301297112168 0.013999091521667697 0.014742617764064162 0.015551478665977076 0.01642361140700423 0.017356276901289058 0.01834605158791509 0.019388826516475638 0.020479814365585203
0.021613564944817452 0.022783989619925258 0.023984394968320093 0.02520752581859498 0.026445617657099504 0.027690458199727694 0.0289334577323619 0.030165727623620568 0.03137816621394063 0.03256155109114892
3.2651640800600404E-4 2.6782547972966183E-4 2.1915200787352927E-4 1.7888986704255822E-4 1.4567090576953338E-4 1.1833325106067757E-4 9.589320408868538E-5 7.752042971971111E-5 6.251614761558513E-5 5.029404186401695E-5
4.036361849411802E-5 3.231575498141767E-5 2.5810202196505695E-5 2.056481657341424E-5 1.634631803875412E-5 1.2962387016032544E-5 1.0254931253383581E-5 8.094370046300496E-6 6.37479943718419E-6 5.009917026987323E-6
3.9295990376087815E-6 3.077035165741463E-6 2.4063385528073116E-6 1.8805588722212877E-6 1.4700361367302488E-6 1.15104140325157E-6 9.04658160199281E-7 7.158648899667188E-7 5.727851785462694E-7 4.660768683754264E-7
3.884361921340841E-7 3.341966550783315E-7 2.990057190578944E-7 2.795651460571198E-7 2.734232417690941E-7 2.78809254331532E-7 2.945018789209676E-7 3.1972523949731126E-7 3.54066903936724E-7 3.9741347290000396E-7
4.4990009666008505E-7 5.11870944484375E-7 5.838482012374347E-7 6.665076156634437E-7 7.606589915185128E-7 8.672303110347277E-7 9.87254422591911E-7 1.1218574215055595E-6 1.272248013395868E-6 1.4397072811231493E-6
1.625578384954184E-6 1.8312558165864074E-6 2.0581739051064087E-6 2.307794340311057E-6 2.5815925388076707E-6 2.881042733083663E-6 3.2076017149374106E-6 3.5626912134924E-6 3.947678935295131E-6 4.363858340208071E-6
4.812427272144442E-6 5.2944656080928116E-6 5.810912132067538E-6 6.362540882134133E-6 6.949937257883563E-6 7.573474211933018E-6 8.233288881395312E-6 8.929260042912786E-6 9.660986796906997E-6 1.0427768902278867E-5
1.1228589191084873E-5 1.2062098492976989E-5 1.2926603490811412E-5 1.3820057911333699E-5 1.4740057427946827E-5 1.568383861617545E-5 1.6648282256684937E-5 1.7629921225967082E-5 1.862495315167676E-5 1.9629257938947756E-5
2.0638420196925697E-5 2.1647756512544857E-5 2.2652347432761162E-5 2.3647073928724466E-5 2.462665802755559E-5 2.5585707211410974E-5 2.6518762101336684E-5 2.7420346867009398E-5 2.828502173474335E-5 2.9107436906923452E-5
2.9882387157946588E-5 3.0604866336263714E-5 3.127012098038585E-5 3.1873702249649E-5 3.2411515378673615E-5 3.287986588802647E-5 3.327550182242663E-5 3.359565134141967E-5 3.383805505487317E-5 3.4000992575692394E-5
3.4083302853260095E-5 3.408439795142431E-5 3.400427004232208E-5 3.384349149966712E-5 3.360320808995932E-5 3.3285125374937826E-5 3.2891488551042E-5 3.242505605927484E-5 3.1889067399413517E-5 3.128720567390257E-5
3.062355546714488E-5 2.9902556733719238E-5 2.912895542304892E-5 2.8307751607329253E-5 2.744414590356189E-5 2.654348498917532E-5 2.5611207004138114E-5 2.46527876112597E-5 2.3673687451400904E-5 2.267930168278238E-5
2.167491223491962E-5 2.0665643339596927E-5 1.9656420825546152E-5 1.8651935582057744E-5 1.7656611511632718E-5 1.6674578204997367E-5 1.5709648485329364E-5 1.4765300884285616E-5 1.38446670321548E-5 1.2950523869809052E-5
1.2085290522549133E-5 1.1251029616674069E-5 1.0449452769707739E-5 9.681929945520167E-6 8.94950233672491E-6 8.252898419166568E-6 7.592552817314724E-6 6.9686276250902745E-6 6.381035844096673E-6 5.829466630359421E-6
5.313412081403649E-6 4.832195347724149E-6 4.384999916363329E-6 3.970899989413658E-6 3.588891966902661E-6 3.237927141925252E-6 2.9169458264255934E-6 2.62491324921602E-6 2.36085770432501E-6 2.123911578402443E-6
1.9133560516082612E-6 1.7286704481834167E-6 1.569587411785283E-6 1.4361552976593972E-6 1.3288094096742141E-6 1.248453965786735E-6 1.1965569508850122E-6 1.1752603109064765E-6 1.1875082557159837E-6 1.237196768639371E-6
1.3293477649221167E-6 1.4703116955841214E-6 1.6680027515491692E-6 1.9321711782172103E-6 2.2747175535786506E-6 2.7100542021901714E-6 3.25551919920868E-6 3.931848647167959E-6 4.763713064743333E-6 5.78032379034769E-6
7.0161152505684104E-6 8.511508748471616E-6 1.0313763061990879E-5 1.2477916578769702E-5 1.5067824900781908E-5 1.8157296799425622E-5 2.1831330059898966E-5 2.618744709460172E-5 3.133712820419063E-5 3.740733800132172E-5
4.454213777161141E-5 5.2904373422207456E-5 6.267742516329645E-5 7.406700119583815E-5 8.730295346674223E-5 1.0264108904223979E-4 1.2036494589910979E-4 1.4078749701689405E-4 1.642527416656953E-4 1.9113713783578637E-4
2.2185082497774546E-4 2.5683858176366617E-4 2.965804596060889E-4 3.4159202936046316E-4 3.924241761789496E-4 4.4966237607501936E-4 5.139253875982124E-4 5.858632933018283E-4 6.661548285981165E-4 7.555039403037041E-4
8.546355238255596E-4 9.642902966351003E-4 0.001085218776495294 0.001218174345864445 0.0013639053989670323 0.0015231465851018064 0.0016966091806881619 0.001884970643101606 0.0020888634212143393 0.0023088631203618684
0.0025454761427575454 0.0027991269476665076 0.0030701450983668414 0.0033587522844623027 0.0036650495278292184 0.003989004797728842 0.004330441274744058 0.004689026513578061 0.005064262760797959 0.0054554786847965725
0.0058618227711443975 0.00628225862678227 0.006715562420954369 0.007160322669336222 0.007614942540556806 0.008077644831495897 0.008546479719768702 0.009019335359264705 0.009493951338222773 0.009967934969976984
0.010438780335206468 0.0109038899423807 0.011360598821298952 0.011806200814414542 0.012237976783258287 0.012653224403947895 0.013049289187646045 0.01342359632995579 0.01377368296852876 0.014097230411341144
0.014392095889696675 0.014656343390348743 0.014888273130256058 0.015086449255205107 0.015249725369405422 0.015377267536497714 0.015468574432294368 0.015523494374874578 0.01554223900709444 0.01552539345872669
0.015473922868817096 0.015389175201906597 0.015272880343012841 0.015127145504269466 0.014954447019590207 0.014757618641552742 0.014539836486004525 0.014304600794071929 0.014055714697996683 0.013797260186539997
0.013533571467924251 0.013269205924088843 0.013008912840389618 0.01275760008102183 0.012520298863876705 0.012302126770921526 0.012108249113307509 0.011943838756093368 0.011814034497528714 0.011723898093962295
0.01167837002512422 0.011682224107005005 0.011740021081698295 0.01185606134585928 0.012034337021864414 0.012278483627848499 0.01259173166352964 0.012976858496575518 0.013436141007179794 0.013971309524004435
0.014583503659802998 0.015273230726653753 0.016040327475359842 0.01688392595768047 0.017802424350125728 0.0187934636007293 0.019853910762458023 0.02097984985612164 0.022166581059777014 0.023408628949336832
0.02469976041585138 0.026033012759057183 0.027400732305523666 0.028794623725274564 0.03020581002622535 0.031624902995160346 0.03304208363206432 0.034447191896886824 0.0358298248602516 0.03717944212857142
3.233124814459967E-4 2.651974799039929E-4 2.1700164107772045E-4 1.771346007838468E-4 1.4424163382229598E-4 1.1717226957891645E-4 9.495246354460236E-5 7.676003035600526E-5 6.190304896826151E-5 4.9800959691407144E-5
3.99680851051619E-5 3.199932146906019E-5 2.5557763434595438E-5 2.0364042018208923E-5 1.6187173384693717E-5 1.2836733589735643E-5 1.0156191693174054E-5 8.017250312944358E-6 6.315058542858044E-6 4.964177063156324E-6
3.895189138716823E-6 3.0518639751535123E-6 2.3887905711911835E-6 1.8694107772929953E-6 1.4643897774637143E-6 1.1502707012338998E-6 9.083676051622004E-7 7.238577043368701E-7 5.850395551128871E-7 4.827289631274203E-7
4.0976878750311215E-7 3.606326030756648E-7 3.3110543428384155E-7 3.180275498469518E-7 3.1908966480472453E-7 3.3266988936433147E-7 3.577044408287032E-7 3.9358553934291127E-7 4.40081079262875E-7 4.972716401366821E-7
5.655012049466921E-7 6.453386149138567E-7 7.375473328531735E-7 8.430615306914368E-7 9.629668784157562E-7 1.0984847060345561E-6 1.2509584495433438E-6 1.4218414869319868E-6 1.6126856298285322E-6 1.8251296678919734E-6
2.060887472747648E-6 2.3217352612388477E-6 2.6094976982584934E-6 2.9260325908378336E-6 3.273213990225637E-6 3.652913579511082E-6 4.066980282517112E-6 4.5172180863494226E-6 5.005362125851036E-6 5.533053133645662E-6
6.10181041449929E-6 6.713003557152316E-6 7.367823150098208E-6 8.067250819322652E-6 8.81202895491516E-6 9.602630538734271E-6 1.0439229525862786E-5 1.1321672267289841E-5 1.224945048894852E-5 1.3221676361791862E-5
1.4237060207949235E-5 1.5293891388223584E-5 1.6390022905476527E-5 1.752286023620009E-5 1.8689354868418674E-5 1.988600297788673E-5 2.110884961650874E-5 2.2353498717474704E-5 2.361512914154988E-5 2.4888516899360353E-5
2.6168063586764266E-5 2.74478309661554E-5 2.872158151773522E-5 2.998282467355257E-5 3.12248683357616E-5 3.244087517152734E-5 3.362392307280729E-5 3.476706907236216E-5 3.58634159202172E-5 3.6906180449710826E-5
3.788876280130659E-5 3.880481552734671E-5 3.964831157337347E-5 4.041361012268322E-5 4.1095519301098866E-5 4.168935476883515E-5 4.219099327556916E-5 4.259692032276741E-5 4.290427116281565E-5 4.3110864465990496E-5
4.321522810182592E-5 4.3216616608627E-5 4.311502006113913E-5 4.2911164188820725E-5 4.260650174276302E-5 4.220319525493927E-5 4.1704091476034795E-5 4.111268791457559E-5 4.04330920275634E-5 3.966997372869967E-5
3.882851198219637E-5 3.791433633615014E-5 3.6933464317917137E-5 3.589223566372909E-5 3.479724438526644E-5 3.365526968684059E-5 3.2473206738492874E-5 3.1257998283408977E-5 3.0016568013686774E-5 2.8755756588201613E-5
2.7482261091906567E-5 2.6202578649498144E-5 2.4922954810284544E-5 2.364933721776922E-5 2.2387334969451202E-5 2.11421839621941E-5 1.9918718408734707E-5 1.872134860388765E-5 1.755404491700672E-5 1.6420327892326885E-5
1.532326425276805E-5 1.4265468527191062E-5 1.3249109957270331E-5 1.2275924289123048E-5 1.1347230017388335E-5 1.0463948626116998E-5 9.626628361928595E-6 8.835471080543603E-6 8.090361727986398E-6 7.390900052347419E-6
6.736434190802862E-6 6.126095839410932E-6 5.558836789857757E-6 5.03346670771317E-6 4.548692130882081E-6 4.103156784956591E-6 3.6954834444055053E-6 3.324317715486611E-6 2.988374279120811E-6 2.686486310588685E-6
2.4176589888095874E-6 2.1811282222567622E-6 1.9764259524045535E-6 1.8034536501146563E-6 1.662565896520063E-6 1.554666238464018E-6 1.4813178296841283E-6 1.4448717123996295E-6 1.4486159586815776E-6 1.4969492748875267E-6
1.595583072226011E-6 1.7517764174157227E-6 1.974608692933026E-6 2.2752952080390804E-6 2.6675513989637416E-6 3.168011626168058E-6 3.7967089027361067E-6 4.577622152086184E-6 5.539297773875762E-6 6.7155523698391505E-6
8.146263419155703E-6 9.878254465999053E-6 1.196628095809481E-5 1.4474122220557018E-5 1.747578412902892E-5 2.10568158249982E-5 2.5315742259688782E-5 3.0365612428789995E-5 3.6335660839624976E-5 4.337307701150217E-5
5.1644874632211466E-5 6.133984837110201E-5 7.267060228506603E-5 8.587562926421815E-5 1.0122141608032567E-4 1.1900454337140271E-4 1.3955374438727347E-4 1.632318806205478E-4 1.9043778666360132E-4 2.2160793089491638E-4
2.572178330589996E-4 2.9778317463522526E-4 3.438605332835466E-4 3.960476688163915E-4 4.5498328529620106E-4 5.213461922252085E-4 5.958537876083803E-4 6.792597871584217E-4 7.723511272876132E-4 8.759439749898494E-4