# vtk DataFile Version 2.0 
Volume data
ASCII
DATASET STRUCTURED_POINTS
DIMENSIONS 300 300 1
SPACING 1 1 1
ORIGIN 0 0 0
POINT_DATA 90000
SCALARS volume_scalars double
LOOKUP_TABLE default 
3.3774673332766426E-4 2.7704419023810803E-4 2.2670012763817E-4 1.8505437015719193E-4 1.5069257213776136E-4 1.2241351001232744E-4 9.92000731951164E-5 8.019364883567027E-5 6.467160057961125E-5 5.202755062787141E-5
4.175418687925137E-5 3.342833190028662E-5 2.6698027123524307E-5 2.1271403374293593E-5 1.6907127016141687E-5 1.3406229233400787E-5 1.0605143872323947E-5 8.369796556411669E-6 6.590604264212393E-6 5.178260057604654E-6
4.0601920762564606E-6 3.1775992143184405E-6 2.482978049065641E-6 1.938066607577621E-6 1.512140468473124E-6 1.1806055498664324E-6 9.23839792795006E-7 7.262428800556934E-7 5.754592069408441E-7 4.617446178968887E-7
3.774520164134186E-7 3.166149172633516E-7 2.746114100756547E-7 2.4789390652969175E-7 2.3377251092188346E-7 2.3024194117368932E-7 2.3584368511008059E-7 2.4955655055140897E-7 2.707099980299362E-7 2.989156677035713E-7
3.3401335887498336E-7 3.760284189995225E-7 4.2513807308743795E-7 4.816446945843995E-7 5.459544028139403E-7 6.185596849427058E-7 7.000249949481022E-7 7.909744889899516E-7 8.920812249373464E-7 1.0040572911032156E-6
1.127644441726943E-6 1.263604909550662E-6 1.4127121431471355E-6 1.5757412818637825E-6 1.7534592370554352E-6 1.9466142968175713E-6 2.155925214342972E-6 2.3820697785357397E-6 2.6256729005076604E-6 2.887294281640253E-6
3.1674157583655618E-6 3.466428445842475E-6 3.7846198272631056E-6 4.122160957466458E-6 4.479093968617853E-6 4.855320081619287E-6 5.25058833929304E-6 5.6644852858605326E-6 6.0964258214621905E-6 6.545645460107095E-6
7.011194214232759E-6 7.491932318798535E-6 7.986527992425493E-6 8.493457412529472E-6 9.01100705578815E-6 9.53727852487777E-6 1.0070195947577298E-5 1.0607515995565666E-5 1.1146840528152193E-5 1.168563182151817E-5
1.222123029765327E-5 1.2750874619971408E-5 1.3271723975587546E-5 1.378088231847093E-5 1.4275424304225472E-5 1.475242260714033E-5 1.5208976274419443E-5 1.5642239742095053E-5 1.6049452112917266E-5 1.642796627922866E-5
1.6775277464085095E-5 1.708905075209967E-5 1.73671471879266E-5 1.760764803502878E-5 1.780887681025037E-5 1.7969418740415637E-5 1.8088137325165793E-5 1.8164187734820475E-5 1.819702682232874E-5 1.8186419583334197E-5
1.8132441956873037E-5 1.8035479920014834E-5 1.7896224891548576E-5 1.7715665521284575E-5 1.749507600137314E-5 1.7236001092960753E-5 1.69402381143176E-5 1.66098161841875E-5 1.624697305557546E-5 1.5854129909704285E-5
1.5433864506814276E-5 1.4988883109419054E-5 1.4521991604330262E-5 1.4036066252187912E-5 1.3534024487541468E-5 1.301879617906859E-5 1.2493295738809046E-5 1.1960395442012173E-5 1.1422900286146997E-5 1.0883524679726555E-5
1.0344871209843015E-5 9.809411692748728E-6 9.27947066552138E-6 8.757211429890568E-6 8.244624712715719E-6 7.743519962381198E-6 7.255519257426479E-6 6.782053763879844E-6 6.324362641733403E-6 5.883494269389287E-6
5.460309628210731E-6 5.055487667896046E-6 4.669532457511602E-6 4.302781916820554E-6 3.955417918076182E-6 3.627477549682479E-6 3.3188653399628374E-6 3.0293662515776433E-6 2.7586592747252184E-6 2.5063314699720645E-6
2.2718923392317E-6 2.054788435923184E-6 1.8544181626262496E-6 1.670146746618256E-6 1.501321430625058E-6 1.3472869681435176E-6 1.207401570104538E-6 1.0810535128649954E-6 9.676786870794809E-7 8.667794435494921E-7
7.779451764129493E-7 7.008751768281843E-7 6.354043924753422E-7 5.815328406044932E-7 5.394595458243377E-7 5.096220090743788E-7 4.927423618203913E-7 4.898815197817853E-7 5.025028234344921E-7 5.325468376995023E-7
5.825191796514854E-7 6.555934491317657E-7 7.557315504087035E-7 8.878239101644579E-7 1.0578523137214647E-6 1.2730782920001025E-6 1.5422601893715465E-6 1.875902219086895E-6 2.2865389585926674E-6 2.789058840519064E-6
3.4010702436410943E-6 4.1433137673487305E-6 5.040124167403867E-6 6.119945223056178E-6 7.415900478007773E-6 8.966422331688913E-6 1.081594133407583E-5 1.3015636738438888E-5 1.5624248374548638E-5 1.870894870436097E-5
2.2346272500034215E-5 2.6623099930869446E-5 3.163768695658986E-5 3.75007348001355E-5 4.433648792149182E-5 5.2283847350522594E-5 6.14974834857696E-5 7.214892956202311E-5 8.442763397706515E-5 9.854194660350942E-5
1.1472001116273522E-4 1.3321053278364352E-4 1.5428338709955875E-4 1.7823003475242563E-4 2.0536370308365674E-4 2.3601929521191976E-4 2.705529857504604E-4 3.09341462222801E-4 3.527807719164128E-4 4.0128473558422094E-4
4.552828921684338E-4 5.152179426702961E-4 5.815426664937829E-4 6.547162900971024E-4 7.352002956103091E-4 8.234536662039137E-4 9.199275753681367E-4 0.00102505953879038 0.0011392670600621907 0.001262940814823968
0.0013964374319402003 0.0015400719446209837 0.001694109998759425 0.0018587599197963745 0.0020341647527828558 0.0022203944025962906 0.002417438012077296 0.002625196724788493 0.002843476985767106 0.003071984537684825
0.0033103192709156033 0.003557971083870459 0.0038143169043756034 0.004078619013710496 0.0043500248021330285 0.004627568068342096 0.004910171955501593 0.005196653593415219 0.00548573049053998 0.0057760286911958175
0.006066092683097264 0.006354397008809418 0.0066393595025868585 0.006919356042013069 0.00719273667267196 0.007457842934510931 0.007713026191343063 0.007956666740790833 0.00818719346154238 0.008403103738635828
0.008602983396066535 0.008785526359664739 0.008949553772117997 0.00909403228627124 0.009218091272332881 0.009321038689102515 0.00940237538842339 0.00946180764522406 0.009499257732102364 0.009514872386675187
0.009509029051049047 0.009482339794893479 0.009435652865838742 0.00937005184240662 0.009286852394600783 0.009187596684896606 0.009074045467052209 0.008948167961422771 0.008812129602965837 0.008668277771714075
0.0085191256251855 0.008367334158202273 0.008215692618281064 0.00806709740468608 0.007924529577092122 0.0077910310963951405 0.007669679916422211 0.007563564042062064 0.007475754667594061 0.00740927850962299
0.007367089452822226 0.007352039634305926 0.007366850104367819 0.007414081217801747 0.007496102931071372 0.007615065205971416 0.0077728687495869486 0.007971136352499882 0.008211185121231255 0.008493999935518685
0.008820208494675214 0.009190058348260317 0.009603396332811208 0.010059650856590295 0.010557817486388416 0.01109644829268229 0.011673645400357691 0.012287059170524441 0.012933891403739671 0.013610903905693618
0.01431443269301779 0.015040408039749834 0.015784380475041864 0.016541552741350975 0.017306817611512572 0.018074801345143145 0.018839912442528514 0.019596395230634167 0.02033838769448405 0.02105998285138762
3.363326865973836E-4 2.758843095041899E-4 2.2575104671721975E-4 1.8427967454538575E-4 1.5006176992228684E-4 1.2190113975735112E-4 9.878493332276113E-5 7.985813429884722E-5 6.440113387990252E-5 5.1810095449808695E-5
4.157983377826376E-5 3.328894658497612E-5 2.65869529066536E-5 2.1183210326572328E-5 1.683740124050579E-5 1.3351396484822074E-5 1.0562322480607054E-5 8.336675269457785E-6 6.5653412202650075E-6 5.159399621079781E-6
4.046596737345344E-6 3.168394162306355E-6 2.4775063879814875E-6 1.9358534950751538E-6 1.512864729304769E-6 1.1840775482938958E-6 9.29984547876218E-7 7.350875777518161E-7 5.871244068867048E-7 4.764385736434274E-7
3.954676288390095E-7 3.3832892421739016E-7 3.004854834322634E-7 2.784773826960918E-7 2.697065242271639E-7 2.7226476300410964E-7 2.847970965094629E-7 3.0639309345570614E-7 3.3650096139777485E-7 3.7485967046521377E-7
4.214453926800523E-7 4.7642921095212054E-7 5.401436227112672E-7 6.130558308131508E-7 6.957461964782438E-7 7.888905406312708E-7 8.932452338552656E-7 1.009634222019275E-6 1.1389373035055697E-6 1.2820791123755795E-6
1.440018376006675E-6 1.6137371108292622E-6 1.8042294999717223E-6 2.0124902652452185E-6 2.239502405645272E-6 2.4862242274972413E-6 2.7535756391103926E-6 3.042423726485585E-6 3.3535676670369036E-6 3.687723075924643E-6
4.04550591468358E-6 4.427416124383454E-6 4.833821175420131E-6 5.264939752912086E-6 5.720825820173104E-6 6.201353322383412E-6 6.706201807887742E-6 7.2348432549988045E-6 7.786530397294671E-6 8.360286839728522E-6
8.954899251056287E-6 9.568911904868736E-6 1.0200623821742725E-5 1.0848088738692896E-5 1.1509118099352601E-5 1.2181287219441851E-5 1.2861944737558955E-5 1.3548225411791693E-5 1.4237066268877324E-5 1.492522605558673E-5
1.5609307882744438E-5 1.6285784892007007E-5 1.69510287154844E-5 1.7601340439832977E-5 1.8232983730931852E-5 1.8842219724026456E-5 1.9425343238581334E-5 1.9978719838250863E-5 2.0498823225450498E-5 2.0982272437936584E-5
2.142586830235202E-5 2.182662859741635E-5 2.2181821387663526E-5 2.2488996007440412E-5 2.2746011204099086E-5 2.295105998852629E-5 2.310269078967643E-5 2.3199824566706506E-5 2.324176759652815E-5 2.322821972478837E-5
2.3159277943000524E-5 2.303543523219157E-5 2.2857574692354572E-5 2.262695905550439E-5 2.234521575655131E-5 2.2014317808906683E-5 2.1636560799189202E-5 2.1214536376217656E-5 2.0751102662435327E-5 2.0249352059995342E-5
1.9712576958147488E-5 1.91442338727553E-5 1.8547906562436876E-5 1.7927268668916714E-5 1.7286046421903848E-5 1.6627981931618913E-5 1.5956797565637355E-5 1.5276161871868337E-5 1.4589657467269326E-5 1.3900751263481867E-5
1.3212767347229855E-5 1.2528862776387812E-5 1.185200649347244E-5 1.118496149829995E-5 1.053027036200964E-5 9.890244106843414E-6 9.266954421151333E-6 8.66222912811461E-6 8.077650780553726E-6 7.514558213686177E-6
6.9740508534343096E-6 6.456995550320714E-6 5.964035688440491E-6 5.495602305644059E-6 5.051926954949058E-6 4.6330560382695044E-6 4.2388663516601756E-6 3.8690815962170925E-6 3.523289630307883E-6 3.200960266670654E-6
2.9014634518785957E-6 2.6240877055179337E-6 2.3680587420357553E-6 2.132558249534752E-6 1.9167428568823087E-6 1.7197633835450575E-6 1.5407845358698334E-6 1.3790052895615046E-6 1.2336802814477963E-6 1.10414262499179E-6
9.898286642501104E-7 8.903052910066516E-7 8.053005706226674E-7 7.347385547346496E-7 6.787793042606126E-7 6.378653050965291E-7 6.127756320643239E-7 6.046894045006247E-7 6.152602793582838E-7 6.467039443372262E-7
7.019008032452205E-7 7.845162866208946E-7 8.991414698218926E-7 1.0514569344110097E-6 1.2484230616576973E-6 1.4985001928309588E-6 1.8119023216957448E-6 2.200888190603059E-6 2.6800938314129516E-6 3.266910713044225E-6
3.981913713732496E-6 4.849343111362653E-6 5.89764466114754E-6 7.1600715866278915E-6 8.675351926502697E-6 1.0488424134448943E-5 1.2651243099916577E-5 1.5223657823358258E-5 1.8274360819118404E-5 2.188190791497813E-5
2.613580545391197E-5 3.113765996992192E-5 3.7002383200235557E-5 4.385944281167934E-5 5.185414646860427E-5 6.114894387150574E-5 7.192472817801405E-5 8.438211482136576E-5 9.874267221829914E-5 1.1525007527426731E-4
1.341711490279901E-4 1.557967663222103E-4 1.804425601485733E-4 2.0844940840917563E-4 2.4018364639322856E-4 2.760369604204604E-4 3.1642591499449E-4 3.6179106558278603E-4 4.1259560993592385E-4 4.693235328122682E-4
5.324772022074584E-4 6.025743798066472E-4 6.801446144640587E-4 7.6572499512317E-4 8.598552487415173E-4 9.630721794578333E-4 0.0010759034573724633 0.0011988607787939767 0.0013324324344745554 0.001477075338000941
0.0016332065828621454 0.0018011946134652136 0.001981350112156228 0.0021739167207243007 0.002379061730487926 0.002596866889428854 0.0028273194874790255 0.00307030389151153 0.0033255937093833003 0.0035928447670987183
0.0038715890844287326 0.00416123003180821 0.004461038844796789 0.0047701526616668755 0.005087574234714228 0.005412173446721846 0.005742690740807803 0.006077742544934252 0.00641582874204755 0.006755342203670565
0.007094580369395677 0.007431758817842561 0.007765026737035994 0.008092484164670207 0.008412200832239217 0.008722236412414763 0.009020661937219007 0.009305582126295005 0.009575158340682288 0.00982763185861595
0.010061347156523844 0.010274774870994997 0.010466534116269079 0.010635413836821775 0.010780392885782699 0.010900658536937773 0.010995623160478956 0.011064938819856054 0.01110850957830332 0.011126501337985291
0.011119349071272207 0.011087761341401985 0.011032722047679131 0.010955489367387272 0.010857591901792533 0.01074082206612612 0.010607226792517913 0.010459095639929696 0.010298946425810092 0.0101295085102667
0.009953703875040288 0.0097746261467005 0.009595517716699947 0.009419745110853594 0.009250772758251022 0.009092135305496008 0.008947408617532373 0.008820179602239752 0.008714014993553442 0.00863242922811055
0.008578851554278236 0.008556592520648613 0.00856881000425228 0.008618474957162987 0.008708337073868984 0.008840890610493347 0.009018340620052915 0.00924256990452684 0.009515107023324282 0.009837095737273163
0.010209266305734519 0.010631909089923963 0.011104850945914983 0.011627434913982874 0.01219850372483106 0.012816387645858374 0.013478897180220367 0.014183321106559149 0.014926430306853127 0.01570448777325323
0.016513265111927668 0.01734806577328838 0.018203755134559605 0.019074797444103453 0.019955299509436572 0.020839060875183904 0.021719630096520073 0.02259036657152319 0.023444507256175612 0.02427523745251677
3.342583582682483E-4 2.7418282411914406E-4 2.243587881301522E-4 1.831432241341532E-4 1.4913639694662215E-4 1.2114949264325128E-4 9.817590916472861E-5 7.936590574353234E-5 6.400431439750036E-5 5.149102578631065E-5
4.132397409178871E-5 3.3084360387763737E-5 2.6423870450461477E-5 2.1053660476769207E-5 1.6734902180068444E-5 1.3270696773469773E-5 1.0499185068419988E-5 8.287698032233805E-6 6.52780845058148E-6 5.131159680475015E-6
4.025961757749175E-6 3.15405828569433E-6 2.4684795591748223E-6 1.9314082805653532E-6 1.51249403164961E-6 1.1874614274054336E-6 9.369646534164169E-7 7.456479464545172E-7 6.013775900685613E-7 4.946162381203495E-7
4.179149231386111E-7 3.655020251383999E-7 3.329518389951111E-7 3.169182493103411E-7 3.149214610688914E-7 3.2517779742534157E-7 3.4646431278229874E-7 3.780114250263081E-7 4.194179856166407E-7 4.7058421581642945E-7
5.316587730512728E-7 6.029969005469666E-7 6.851271797909907E-7 7.787248694786701E-7 8.845901940295046E-7 1.0036302544960588E-6 1.1368434874693354E-6 1.285305804155887E-6 1.4501577111792905E-6 1.6325918543605613E-6
1.8338405429843283E-6 2.055162909972513E-6 2.297831447121644E-6 2.563117727448256E-6 2.8522771913598147E-6 3.166532931852123E-6 3.5070584677351857E-6 3.874959544069606E-6 4.271255046237072E-6 4.696857158727902E-6
5.152550941889497E-6 5.638973539396992E-6 6.1565932657509134E-6 6.705688856199909E-6 7.28632919054522E-6 7.898353826655276E-6 8.541354698514463E-6 9.214659346565371E-6 9.917316054328469E-6 1.0648081264218052E-5
1.1405409636638066E-5 1.2187447099486406E-5 1.2992027209926353E-5 1.3816671116679495E-5 1.465859136933045E-5 1.5514699771591568E-5 1.6381619418744196E-5 1.725570099635722E-5 1.813304334888973E-5 1.9009518254107727E-5
1.9880799263756334E-5 2.0742394394136384E-5 2.158968237376327E-5 2.241795208083029E-5 2.3222444732488248E-5 2.3998398322704782E-5 2.4741093747334273E-5 2.5445902005568583E-5 2.610833182754902E-5 2.6724077049804596E-5
2.7289063044323362E-5 2.7799491504160938E-5 2.8251882898966113E-5 2.864311593775976E-5 2.897046341351995E-5 2.9231623854065702E-5 2.942474846553371E-5 2.9548462927253303E-5 2.9601883678614976E-5 2.958462842793328E-5
2.9496820708459133E-5 2.9339088405588583E-5 2.9112556279835297E-5 2.881883261012653E-5 2.845999017931096E-5 2.803854191635963E-5 2.7557411595654864E-5 2.7019900071221185E-5 2.642964759120368E-5 2.5790592794046064E-5
2.5106929031647863E-5 2.4383058695586115E-5 2.3623546239889323E-5 2.2833070597789567E-5 2.2016377680613655E-5 2.117823362507265E-5 2.032337942150882E-5 1.9456487511268335E-5 1.85821208875853E-5 1.770469517268799E-5
1.682844407587919E-5 1.5957388564809363E-5 1.5095310006790351E-5 1.4245727460530845E-5 1.3411879222793342E-5 1.2596708660782279E-5 1.1802854291050573E-5 1.1032644000686727E-5 1.0288093247677468E-5 9.57090702559983E-6
8.882485333961548E-6 8.223931860158059E-6 7.5960655525365034E-6 6.9994347466638205E-6 6.434333498631271E-6 5.900819780000582E-6 5.398735198598625E-6 4.927725927506157E-6 4.487264550918629E-6 4.0766725697154474E-6
3.6951433512102973E-6 3.341765356359539E-6 3.015545533449695E-6 2.715432829841465E-6 2.4403418427155685E-6 2.189176706094667E-6 1.9608553950118333E-6 1.7543347190368054E-6 1.5686363771004855E-6 1.4028745544797054E-6
1.2562856618639496E-6 1.1282609466841645E-6 1.0183828494754663E-6 9.264661341302236E-7 8.526049915935729E-7 7.972275028599329E-7 7.611590498338371E-7 7.456964821895953E-7 7.526950848269228E-7 7.846706433176871E-7
8.449191725844685E-7 9.376571547600391E-7 1.0681854224940714E-6 1.2430801193962276E-6 1.4704144639004015E-6 1.7600153290639198E-6 2.123758919369443E-6 2.575910065253773E-6 3.13350985359812E-6 3.816816452435909E-6
4.649804053212856E-6 5.66072482455813E-6 6.882738626267988E-6 8.354614947947253E-6 1.0121511089048021E-5 1.2235829960560605E-5 1.4758160037764248E-5 1.7758298903115663E-5 2.131636046480547E-5 2.552396429840925E-5
3.048550361865386E-5 3.6319486132729316E-5 4.315993944922231E-5 5.115786981878823E-5 6.0482759774522926E-5 7.13240867428376E-5 8.389284094278472E-5 9.84230169300368E-5 1.1517304903233199E-4 1.344271567427885E-4
1.564965619783031E-4 1.817205360801858E-4 2.1046723065633094E-4 2.4313424297540175E-4 2.8014886377276824E-4 3.2196795317377276E-4 3.6907738914710033E-4 4.219910326366449E-4 4.8124915444878655E-4 5.474162712503516E-4
6.210783418036728E-4 7.028392799520471E-4 7.933167479681083E-4 8.931372027520813E-4 0.001002930178039913 0.001123321798230485 0.001254927533592744 0.0013983442223380901 0.0015541414021531506 0.0017228520120341902
0.001904962544338854 0.0021009027465064495 0.0023110349914749746 0.002535643454973651 0.0027749232560877394 0.003028969734245401 0.0032977680505158835 0.0035811833132873214 0.003878951437480963 0.004190670951959601
0.004515795971256592 0.004853630544813843 0.005203324589282668 0.005563871596924989 0.005934108295682061 0.006312716414111209 0.0066982266773164805 0.007089025128545462 0.007483361835757928 0.007879362003790125
0.008275039471462124 0.008668312529936112 0.009057021954748445 0.009438951100194793 0.009811847862173454 0.010173448275223932 0.010521501472355935 0.010853795703314552 0.0111681850790551 0.011462616688176185
0.011735157715510711 0.01198402218446678 0.012207596943321502 0.012404466521581841 0.012573436495612692 0.012713555022661045 0.012824132228646397 0.012904757166924168 0.01295531210178175 0.012975983910678545
0.0129672724420724 0.012929995709902534 0.012865291850215132 0.012774617808837561 0.012659744770308658 0.012522750376443625 0.012366007817086438 0.01219217190509743 0.012004162271969218 0.011805143839421044
0.011598504735900001 0.011387831835373282 0.011176884099629181 0.010969563905238408 0.01076988653328289 0.010581947995015238 0.010409891360964629 0.010257871755907028 0.010130020178830364 0.010030406306748983
0.009963000445036738 0.009931634795757002 0.0099399642299323 0.009991426770195077 0.010089204016842233 0.010236181782673982 0.01043491123945097 0.010687570920299977 0.010995929966524001 0.011361313052285452
0.0117845674645083 0.012266032855842934 0.012805514223267802 0.013402258691422544 0.014054936695670286 0.014761628162910653 0.015519814276285331 0.01632637538146192 0.017177595545909113 0.018069174217771634
0.018996245347494497 0.019953404233748678 0.02093474223666136 0.021933889367721816 0.02294406461953332 0.023958133742945507 0.02496867401769714 0.02596804539963529 0.026948467267290676 0.027902099837702567
3.315360510580554E-4 2.7194982704072037E-4 2.2253161249980827E-4 1.8165176422618002E-4 1.479219487602262E-4 1.2016303635884044E-4 9.737662548685006E-5 7.871989878470723E-5 6.348351617559852E-5 5.107225975292686E-5
4.098815735333821E-5 3.2815826404833396E-5 2.6209795990639696E-5 2.0883582443326828E-5 1.6600311639497208E-5 1.3164699058676229E-5 1.0416216243912645E-5 8.223289277800364E-6 6.478391057305673E-6 5.093904365276457E-6
3.998646898518634E-6 3.1349624675512384E-6 2.4562945125485103E-6 1.9251688927640813E-6 1.5115226341326144E-6 1.1913240095106508E-6 9.454370377198005E-7 7.586902885841738E-7 6.191158434105601E-7 5.173294575669367E-7
4.460274773751871E-7 3.995799488920896E-7 3.7370268957237487E-7 3.6519393951760394E-7 3.717236266521606E-7 3.916653244719171E-7 4.2396270171334663E-7 4.6802370515772825E-7 5.236369197791297E-7 5.909055499669572E-7
6.701952927428651E-7 7.62093055957479E-7 8.673740350244332E-7 9.869751212287947E-7 1.1219729905487347E-6 1.2735655292083667E-6 1.443055503535885E-6 1.6318355878592959E-6 1.8413740341353935E-6 2.0732004082848293E-6
2.328890937011349E-6 2.6100531103118332E-6 2.9183092730660416E-6 3.2552790173254855E-6 3.622560257774689E-6 4.021708938266352E-6 4.4542173787462316E-6 4.9214913302277976E-6 5.424825861293406E-6 5.965380253081991E-6
6.5441521307733866E-6 7.161951107849277E-6 7.819372264352154E-6 8.516769821270152E-6 9.254231409225947E-6 1.0031553359951783E-5 1.0848217472666491E-5 1.1703369723527982E-5 1.2595801393961055E-5 1.352393309209835E-5
1.448580213019406E-5 1.54790536992192E-5 1.650093624966555E-5 1.7548301444841055E-5 1.861760899984809E-5 1.9704936656478893E-5 2.0805995472182443E-5 2.191615052107666E-5 2.3030447017972827E-5 2.414364178406359E-5
2.5250239877042384E-5 2.634453611088388E-5 2.7420661093386595E-5 2.8472631315012055E-5 2.9494402732743973E-5 3.047992720981958E-5 3.1423211098350775E-5 3.231837518903285E-5 3.315971520211029E-5 3.394176195805933E-5
3.465934034630588E-5 3.530762620661049E-5 3.5882200251056934E-5 3.637909818500735E-5 3.6794856232655294E-5 3.712655133623491E-5 3.737183537643836E-5 3.75289628536877E-5 3.75968115737884E-5 3.757489599504271E-5
3.7463373014755996E-5 3.7263040098668864E-5 3.697532578451754E-5 3.660227271792285E-5 3.614651350242389E-5 3.56112397630721E-5 3.500016493211915E-5 3.431748136371027E-5 3.356781247016372E-5 3.275616064372661E-5
3.188785178336075E-5 3.096847728523658E-5 3.0003834377713667E-5 2.8999865686585575E-5 2.796259890459584E-5 2.689808741141033E-5 2.5812352647423086E-5 2.471132898838425E-5 2.360081179951991E-5 2.2486409269466744E-5
2.1373498538012972E-5 2.0267186539488972E-5 1.917227588789254E-5 1.80932360326736E-5 1.7034179817674968E-5 1.5998845482065068E-5 1.4990584053077432E-5 1.4012351997673338E-5 1.306670892533642E-5 1.2155820068313573E-5
1.1281463209716173E-5 1.0445039684713067E-5 9.64758904606115E-6 8.889806962683675E-6 8.17206590895625E-6 7.494438202657051E-6 6.856720960887953E-6 6.258462565272539E-6 5.698990259911727E-6 5.1774385474144676E-6
4.6927780993256686E-6 4.243844956992508E-6 3.8293698669840844E-6 3.448007671368862E-6 3.098366757370414E-6 2.779038663257374E-6 2.488628038059855E-6 2.2257832623313622E-6 1.9892281563847355E-6 1.7777953321112596E-6
1.5904618857068833E-6 1.426388282585201E-6 1.2849614537551968E-6 1.1658433063229219E-6 1.0690260508395745E-6 9.948959661334144E-7 9.44307458957638E-7 9.186695318228816E-7 9.200470478120826E-7 9.512794753746464E-7
1.0161201075949745E-6 1.1193990767138282E-6 1.267213821992667E-6 1.4671510121404807E-6 1.7285442655950809E-6 2.062772344221459E-6 2.4836028076537527E-6 3.00758639353134E-6 3.6545076178706837E-6 4.447897251941621E-6
5.415612406989847E-6 6.590489923280758E-6 8.011078590317038E-6 9.722455393819357E-6 1.1777130463717347E-5 1.4236044656515992E-5 1.7169662715220518E-5 2.0659163681300393E-5 2.4797728658337603E-5 2.9691924121213073E-5
3.5463176707289896E-5 4.224933280206559E-5 5.0206293233528625E-5 5.9509710018312233E-5 7.035672837079269E-5 8.296775311818082E-5 9.758821429914058E-5 1.1449030211498077E-4 1.339746366222504E-4 1.5637183269274224E-4
1.8204391592878394E-4 2.113855405337716E-4 2.448249557433639E-4 2.8282466348074565E-4 3.2588170658328296E-4 3.7452752444206957E-4 4.293273113920233E-4 4.908788128825936E-4 5.59810495539206E-4 6.367790298757441E-4
7.224660288050081E-4 8.175739913601635E-4 9.228214092980701E-4 0.0010389370045782206 0.0011666530781259312 0.0013066979647693836 0.0014597876057012497 0.0016266162681062388 0.0018078464614977488 0.0020040981215302296
0.0022159371542405607 0.002443863456394431 0.0026882985503842776 0.0029495729943993703 0.003227913749777375 0.00352343170693066 0.0038361095883817204 0.00416579046160384 0.0045121671049290855 0.004874772476177375
0.005252971535360426 0.005645954669387205 0.0060527329578059005 0.006472135504045689 0.006902809036285714 0.007343219956045794 0.007791658981082631 0.008246248492569296 0.008704952655376777 0.009165590335260055
0.009625850788715922 0.01008331205119337 0.010535461898267507 0.01097972120348377 0.01141346946703674 0.011834072242474451 0.012238910145402123 0.012625409089824308 0.012991071365341889 0.01333350714280789
0.01365046597797668 0.013939867872697726 0.014199833451632561 0.014428712819408482 0.014625112678421261 0.014787921310776827 0.014916331058503719 0.015009857973341038 0.015068358350088844 0.015092041904516476
0.0150814814068566 0.015037618633591583 0.014961766552157557 0.01485560770396787 0.014721188799483578 0.014560911583750426 0.014377520070865756 0.014174084280432367 0.013953980637644298 0.013720869220943057
0.013478668057182473 0.013231524674231483 0.012983785125496857 0.012739960700788991 0.01250469253434341 0.012282714314890954 0.0120788132958212 0.011897789797155568 0.011744415386698013 0.011623389926755124
0.011539297676469638 0.011496562649144849 0.011499403439729581 0.011551787760336732 0.011657386951356034 0.01181953077205971 0.012041162816822618 0.012324796949992844 0.012672475202445356 0.013085727623942577
0.013565534635299054 0.014112292470435783 0.014725782337977202 0.015405143962290585 0.016148854182031873 0.016954711287746393 0.017819825766551813 0.018740618089479577 0.01971282412423878 0.020731508682166052
0.021791087612784203 0.02288535874329479 0.024007541824824404 0.025150327494463477 0.026305935094954457 0.027466179015882976 0.02862254303559982 0.02976626195655269 0.03088840964331726 0.03197999239767814
3.28181832797308E-4 2.6919849995138124E-4 2.2028030828357464E-4 1.7981410407318094E-4 1.4642560222977372E-4 1.1894760515922031E-4 9.639181543371895E-5 7.792394624495223E-5 6.284183828330757E-5 5.055630057326092E-5
4.057440493533333E-5 3.248497828100626E-5 2.594605313285404E-5 2.0674053960337476E-5 1.6434514597028068E-5 1.303413971739944E-5 1.031404074747371E-5 8.143993388076416E-6 6.417579935493164E-6 5.048094644771946E-6
3.965104399447048E-6 3.1115698743087433E-6 2.4414441861405033E-6 1.9176767302033404E-6 1.5105595285592433E-6 1.196362017348856E-6 9.562078328271373E-7 7.751538870155054E-7 6.41437924415946E-7 5.458658943246564E-7
4.813149315406857E-7 4.42331582415687E-7 4.2480821081841564E-7 4.257233332881398E-7 4.429340234830773E-7 4.750105472107893E-7 5.211050901252667E-7 5.808478649526856E-7 6.542650734793485E-7 7.417141856092409E-7
8.438328144713858E-7 9.614981398429318E-7 1.0957943855291061E-6 1.2479863100899484E-6 1.4194970418561893E-6 1.6118888934286353E-6 1.8268460404685394E-6 2.0661581552616224E-6 2.331704256264342E-6 2.6254361781149555E-6
2.9493611886147646E-6 3.305523385031786E-6 3.6959835958470513E-6 4.122797598999095E-6 4.587992546289581E-6 5.093541557751191E-6 5.641336520739149E-6 6.233159197088455E-6 6.870650808245202E-6 7.555280332825736E-6
8.288311813249573E-6 9.070771027333532E-6 9.90341193620216E-6 1.078668337056887E-5 1.1720696462257226E-5 1.2705193365569577E-5 1.373951784255962E-5 1.4822588306234288E-5 1.5952873925095718E-5 1.71283743902487E-5
1.8346603931733175E-5 1.9604580143205737E-5 2.089881813324962E-5 2.2225330467392117E-5 2.357963329762139E-5 2.4956758996421315E-5 2.6351275521029398E-5 2.775731263205188E-5 2.9168594980361165E-5 3.057848195927099E-5
3.198001409753894E-5 3.336596564520603E-5 3.472890288126445E-5 3.606124755237035E-5 3.735534473806926E-5 3.8603534333042056E-5 3.979822524336496E-5 4.093197131421393E-5 4.1997547943080847E-5 4.298802828734182E-5
4.389685794950807E-5 4.471792701882037E-5 4.5445638364698595E-5 4.607497111609407E-5 4.660153832065799E-5 4.7021637857971915E-5 4.7332295780499194E-5 4.753130137255715E-5 4.761723334917565E-5 4.7589476760524276E-5
4.744823032065457E-5 4.719450403837961E-5 4.683010718980871E-5 4.635762683290163E-5 4.5780397220967875E-5 4.510246062097965E-5 4.432852018076597E-5 4.346388561375443E-5 4.251441257842699E-5 4.1486436719971197E-5
4.038670341210587E-5 3.9222294286610256E-5 3.800055166607448E-5 3.672900202171739E-5 3.541527956320568E-5 3.406705103216627E-5 3.2691942716858796E-5 3.129747063404858E-5 2.9890974737580056E-5 2.8479557913906327E-5
2.7070030415468108E-5 2.5668860266078156E-5 2.4282130051152968E-5 2.291550038252786E-5 2.1574180205402328E-5 2.0262903996261782E-5 1.8985915787771864E-5 1.7746959851773797E-5 1.654927777647369E-5 1.539561159025355E-5
1.4288212513470964E-5 1.322885486206004E-5 1.2218854583289444E-5 1.1259091874975962E-5 1.0350037324815799E-5 9.491781006077703E-6 8.684063979298086E-6 7.926311676278402E-6 7.217668681963452E-6 6.557034480974116E-6
5.94309979799193E-6 5.374383234202106E-6 4.8492679850605846E-6 4.3660385173663494E-6 3.922917185778213E-6 3.518100880520247E-6 3.149797919304339E-6 2.8162655279465814E-6 2.5158483964980773E-6 2.2470189519213644E-6
2.0084201556076903E-6 1.7989118157133057E-6 1.6176216018822908E-6 1.4640021649627102E-6 1.3378959983179127E-6 1.2396099316504373E-6 1.1700014239843141E-6 1.1305791202667257E-6 1.1236204560381546E-6 1.1523094360903988E-6
1.2208980743110274E-6 1.3348953601201809E-6 1.5012880077182468E-6 1.7287976417710781E-6 2.0281794692217095E-6 2.4125678715207898E-6 2.897874712206902E-6 3.50324647634916E-6 4.251586623054201E-6 5.1701497193721984E-6
6.2912140099903775E-6 7.652839035774037E-6 9.299714716609338E-6 1.1284107928938806E-5 1.3666912002873006E-5 1.6518803703635944E-5 1.992151111283335E-5 2.3969194352723202E-5 2.876993926928045E-5 3.4447361978583356E-5
4.114231956194817E-5 4.901471915091119E-5 5.8245414164711006E-5 6.903817255191451E-5 8.16216975582916E-5 9.625167682356686E-5 1.1321283054519498E-4 1.328209241009758E-4 1.5542470497678805E-4 1.8140771820436484E-4
2.1118994890133717E-4 2.4522923506733405E-4 2.8402238869184394E-4 3.281059586564379E-4 3.780565650669749E-4 4.3449073174440557E-4 4.980641418581731E-4 5.694702413293317E-4 6.494381158834291E-4 7.387295707075687E-4