# vtk DataFile Version 2.0 
Volume data
ASCII
DATASET STRUCTURED_POINTS
DIMENSIONS 300 300 1
SPACING 1 1 1
ORIGIN 0 0 0
POINT_DATA 90000
SCALARS volume_scalars double
LOOKUP_TABLE default 
3.434522239307889E-4 2.817341174182873E-4 2.3054494096097193E-4 1.8819793708445287E-4 1.5325594314500343E-4 1.244982205387808E-4 1.0089102690396158E-4 8.156162466396381E-5 6.577542368441147E-5 5.291596470837786E-5
4.246746257728008E-5 3.399964313907489E-5 2.7154624407872393E-5 2.163561029930062E-5 1.719718356036737E-5 1.363700287708281E-5 1.0788727204499349E-5 8.51600783044533E-6 6.7074053365064345E-6 5.272104300798697E-6
4.136313193273152E-6 3.240250387030303E-6 2.535629526532086E-6 1.9835686633642444E-6 1.5528576230609316E-6 1.2185270505553437E-6 9.606705576223803E-7 7.634784320869346E-7 6.14447539280171E-7 5.037374269650958E-7
4.236473112448251E-7 3.6819264640909434E-7 3.327634366535704E-7 3.1384939839526163E-7 3.088195900745709E-7 3.1574624841230943E-7 3.3326435744866307E-7 3.6045997557452673E-7 3.9678159744830845E-7 4.4196986872367756E-7
4.960018340266374E-7 5.590466106663566E-7 6.314299664770784E-7 7.136057609453553E-7 8.061326023535738E-7 9.09654395381001E-7 1.024883716417253E-6 1.1525871686793973E-6 1.2935720452192948E-6 1.44867377265538E-6
1.6187437282272383E-6 1.8046371226756147E-6 2.0072007256442008E-6 2.2272602821000875E-6 2.4656075302884572E-6 2.7229867859879503E-6 3.0000811058236314E-6 3.297498085209761E-6 3.6157553848657233E-6 3.9552661142147395E-6
4.316324230539998E-6 4.699090139549915E-6 5.1035767058667225E-6 5.529635900665444E-6 5.976946327957003E-6 6.4450018804979E-6 6.933101780688697E-6 7.4403422607911814E-6 7.965610130103865E-6 8.507578464216777E-6
9.064704633050936E-6 9.635230860122448E-6 1.0217187475530482E-5 1.0808398989868373E-5 1.1406493076053027E-5 1.2008912501560142E-5 1.2612930005477777E-5 1.3215666064011938E-5 1.3814109435573066E-5 1.4405140323411507E-5
1.498555594109352E-5 1.555209821510432E-5 1.6101483310728702E-5 1.6630432623277746E-5 1.7135704837836264E-5 1.7614128628054894E-5 1.806263553904215E-5 1.847829258193E-5 1.8858334058821168E-5 1.920019213702433E-5
1.9501525700979417E-5 1.976024702909107E-5 1.9974545870614835E-5 2.014291053435501E-5 2.0264145645581497E-5 2.0337386279414988E-5 2.0362108236927873E-5 2.03381342931727E-5 2.026563631296151E-5 2.0145133199062038E-5
1.997748470707809E-5 1.9763881230147163E-5 1.9505829723244552E-5 1.9205135999915875E-5 1.8863883692343336E-5 1.8484410217595872E-5 1.8069280137683554E-5 1.7621256337777718E-5 1.7143269475027292E-5 1.6638386169361637E-5
1.610977641731436E-5 1.5560680710248128E-5 1.4994377329638572E-5 1.441415027473183E-5 1.3823258252552382E-5 1.322490512770749E-5 1.2622212190651811E-5 1.2018192559094869E-5 1.1415727979190462E-5 1.081754824222605E-5
1.0226213379935906E-5 9.644098748481095E-6 9.073383058721183E-6 8.5160393597233E-6 7.973828934496734E-6 7.44829802258357E-6 6.940777244120162E-6 6.45238356492612E-6 5.984024612545214E-6 5.536405129284308E-6
5.110035330363782E-6 4.705240923365134E-6 4.322174539181612E-6 3.960828324485796E-6 3.6210474510771973E-6 3.302544308054274E-6 3.004913158211577E-6 2.7276450600197523E-6 2.4701428806259806E-6 2.2317362531629745E-6
2.011696362965528E-6 1.8092504818194722E-6 1.6235962069438249E-6 1.4539154019661932E-6 1.2993878807367826E-6 1.1592049216012157E-6 1.0325827500065128E-6 9.187761814674855E-7 8.170926755199572E-7 7.269071150015339E-7
6.476776946097934E-7 5.789633790649043E-7 5.204434752914126E-7 4.7193995581541106E-7 4.334432730324013E-7 4.051425170779746E-7 3.8746089456728646E-7 3.8109764213513824E-7 3.8707763794129993E-7 4.068101362153721E-7
4.421582241923013E-7 4.955207865986119E-7 5.699289587174483E-7 6.691592527561461E-7 7.978657506477743E-7 9.617339654126322E-7 1.1676591775276692E-6 1.4239522458913899E-6 1.740576067066198E-6 2.129416002232145E-6
2.6045876979108816E-6 3.1827857817275782E-6 3.8836769045156904E-6 4.730340509794551E-6 5.7497605247047525E-6 6.973370865522183E-6 8.43765721788006E-6 1.0184816968552529E-5 1.226347841410731E-5 1.4729479434833287E-5
1.7646704684621907E-5 2.1087978995905305E-5 2.5136013123672916E-5 2.9884396148695242E-5 3.5438626827458417E-5 4.191717392153298E-5 4.9452553076239585E-5 5.819240517020448E-5 6.830055825581688E-5 7.995805229814236E-5
9.336410294971772E-5 1.0873697763526273E-4 1.2631475433932544E-4 1.463559307776047E-4 1.691398491856236E-4 1.9496689988184678E-4 2.2415846516845675E-4 2.5705656413892305E-4 2.9402315868615116E-4 3.354390815661475E-4
3.8170254888223235E-4 4.332272219172153E-4 4.904397869451417E-4 5.537770265712702E-4 6.236823623266581E-4 7.006018557022617E-4 7.849796635345399E-4 8.772529536017682E-4 9.778462973703045E-4 0.0010871655689131845
0.0012055913919379003 0.0013334721903902628 0.001471116911990574 0.0016187875080112672 0.0017766912662915751 0.0019449731075477127 0.0021237079670973213 0.0023128933947853376 0.002512442514784548 0.0027221774936677773
0.002941823669352616 0.0031710044948827843 0.0034092374492581848 0.0036559310624460573 0.003910383193155261 0.004171780685875197 0.004439200518097952 0.00471161252968012 0.004987883804181318 0.005266784747057747
0.005546996878204604 0.005827122327032459 0.006105694987608492 0.00638119326003814 0.006652054272900253 0.006916689450902475 0.007173501262728938 0.00742090095703138 0.007657327070358415 0.007881264470158234
0.008091263679384302 0.008285960217141586 0.008464093682578153 0.008624526307072576 0.008766260702773808 0.008888456543657367 0.008990445928266422 0.00907174719087146 0.009132076949437374 0.009171360203954348
0.00918973832669272 0.009187574816037459 0.009165458716955528 0.009124205643042229 0.009064856366687368 0.00898867297444908 0.008897132613541626 0.008791918881851712 0.008674910937632584 0.008548170425661056
0.008413926334004384 0.008274557909613204 0.008132575771871188 0.007990601371279125 0.007851344946053005 0.007717582133109847 0.007592129392327529 0.007477818404777367 0.007377469607545217 0.007293865030464985
0.0072297206042186085 0.007187658115345056 0.007170176992153989 0.007179626116599472 0.007218175870889807 0.007287790643835391 0.007390202040293739 0.007526883056963565 0.007699023508401912 0.007907507007489345
0.00815288982348577 0.0084353819570162 0.00875483078343773 0.009110707622680521 0.009502097593478129 0.009927693101658638 0.010385791294773428 0.010874295787935986 0.011390722927751472 0.011932212812389218
0.012495545226307555 0.013077160578398061 0.013673185853298138 0.01427946549865719 0.014891597077947478 0.015504971421051141 0.016114816905701244 0.016716247404505346 0.017304313337501123 0.01787405518181149
3.419184476491518E-4 2.8047599999657657E-4 2.2951546560806004E-4 1.8735762142471591E-4 1.5257172479098775E-4 1.2394249085685347E-4 1.0044079626503936E-4 8.119780384206187E-5 6.548220741673993E-5 5.2680304742085E-5
4.227861878428402E-5 3.384880247033176E-5 2.703457857399493E-5 2.1540484100744182E-5 1.7122206745034205E-5 1.357831927582002E-5 1.074323568690023E-5 8.48123033722369E-6 6.681377884087995E-6 5.253287422944496E-6
4.1235187882538E-6 3.2325823820974944E-6 2.5324361592657287E-6 1.984404516949443E-6 1.5574538445644255E-6 1.2267684325019707E-6 9.725783780204899E-7 7.791981306101024E-7 6.342404613454674E-7 5.279759963850795E-7
4.528130990704529E-7 4.028768913045434E-7 3.7366964313220036E-7 3.617976957018748E-7 3.6475257837412653E-7 3.8073609196593405E-7 4.0852090815375905E-7 4.473397259768543E-7 4.96797271316733E-7 5.568004606109263E-7
6.275029079243185E-7 7.092606628267694E-7 8.025966495874801E-7 9.08171756929086E-7 1.0267609199324504E-6 1.15923285693805E-6 1.3065323874045814E-6 1.4696644725646306E-6 1.6496792984820053E-6 1.8476578683395712E-6
2.064697693708911E-6 2.3018982782625504E-6 2.56034617598942E-6 2.841099482722764E-6 3.1451716872248833E-6 3.4735148681200707E-6 3.82700227702907E-6 4.206410397300662E-6 4.612400612356032E-6 5.045500658151628E-6
5.5060860706731195E-6 5.994361871545115E-6 6.5103447624837275E-6 7.053846122027309E-6 7.624456115294536E-6 8.22152923895111E-6 8.844171628644756E-6 9.49123045446766E-6 1.0161285721182484E-5 1.085264477376241E-5
1.1563339785142305E-5 1.2291128472003335E-5 1.3033498246130377E-5 1.3787673963784922E-5 1.4550629384200997E-5 1.5319102391499908E-5 1.608961397296628E-5 1.685849088183289E-5 1.7621891845730207E-5 1.837583711413193E-5
1.911624107092396E-5 1.9838947573154367E-5 2.053976761561377E-5 2.1214518864659802E-5 2.1859066555082414E-5 2.246936520215476E-5 2.304150054852448E-5 2.3571731143298898E-5 2.4056528939368208E-5 2.4492618295262742E-5
2.487701277995386E-5 2.5207049203010174E-5 2.548041832814479E-5 2.5695191774896226E-5 2.5849844670141217E-5 2.5943273677269176E-5 2.5974810104833214E-5 2.594422787681285E-5 2.5851746231595827E-5 2.5698027104605534E-5
2.548416723828679E-5 2.521168515101095E-5 2.488250318149117E-5 2.4498924905705238E-5 2.406360829741774E-5 2.3579535069655967E-5 2.3049976691604633E-5 2.2478457622253253E-5 2.1868716337935287E-5 2.1224664755084128E-5
2.0550346661832945E-5 1.9849895772525236E-5 1.9127494008076252E-5 1.838733058299953E-5 1.7633562447589285E-5 1.687027659224952E-5 1.6101454671484755E-5 1.5330940348959236E-5 1.4562409703739077E-5 1.3799344972867788E-5
1.304501183832409E-5 1.2302440398686613E-5 1.1574409898946602E-5 1.0863437227239774E-5 1.0171769126064417E-5 9.501378008932577E-6 8.853961222309586E-6 8.23094354791699E-6 7.633482702598661E-6 7.0624775623944525E-6
6.518578814469132E-6 6.00220172517599E-6 5.51354070471418E-6 5.052585348352928E-6 4.619137640718242E-6 4.212830022761089E-6 3.83314404027842E-6 3.4794293177432422E-6 3.1509226312124543E-6 2.846766888745724E-6
2.5660298656580306E-6 2.307722584693973E-6 2.0708172776013697E-6 1.8542649144628446E-6 1.6570123405173983E-6 1.4780191172177653E-6 1.3162742252258505E-6 1.1708128524084968E-6 1.040733560276715E-6 9.252161984794027E-7
8.235410198194843E-7 7.351095388237827E-7 6.594677762715671E-7 5.963326414268502E-7 5.456223241869465E-7 5.074917020676884E-7 4.82373912891584E-7 4.710294040363544E-7 4.7460394366527904E-7 4.94697268645295E-7
5.334442475206426E-7 5.936106539905517E-7 6.78705875133098E-7 7.931151165291868E-7 9.422539098400064E-7 1.13274797246418E-6 1.3726417075043118E-6 1.6716388577984768E-6 2.0413790310272E-6 2.4957539830168982E-6
3.051267670710387E-6 3.727444150486051E-6 4.547287385483304E-6 5.537796919615522E-6 6.730543156878708E-6 8.162305632090453E-6 9.875777152242129E-6 1.1920336004849796E-5 1.4352887549993904E-5 1.7238775416146765E-5
2.0652761188292487E-5 2.4680069895001615E-5 2.9417496757728695E-5 3.497456855444109E-5 4.1474750570853316E-5 4.905668747372632E-5 5.787546355836539E-5 6.810386472314385E-5 7.993362124515543E-5 9.357660702261548E-5
1.092659674736558E-4 1.272571448130691E-4 1.478287660568683E-4 1.7128335593031687E-4 1.979478339912459E-4 2.281737528502129E-4 2.623372325037076E-4 3.0083854463319764E-4 3.4410130040053174E-4 3.925711959268884E-4
4.467142714096815E-4 5.07014642830534E-4 5.739716695423901E-4 6.480965267781737E-4 7.299081593530817E-4 8.199286015611659E-4 9.186776584799776E-4 0.0010266669555380058 0.0011443933761662688 0.0012723319214958597
0.0014109280411764597 0.0015605895002242995 0.0017216778630617649 0.0018944996922387468 0.0020792975753415564 0.002276241108880928 0.0024854179820625434 0.0027068253158260896 0.0029403614229351147 0.0031858181627649473
0.0034428740693514884 0.003711088432854063 0.003989896512529361 0.004278606053362338 0.0045763952684862675 0.0048823124353782246 0.005195277235570966 0.005514083945421282 0.005837406559578562 0.006163805899577673
0.006491738727921349 0.006819568853706508 0.007145580179963748 0.007467991606174132 0.007784973662715113 0.008094666718114738 0.008395200565821801 0.008684715165574891 0.008961382286184722 0.009223427772372518
0.009469154138885195 0.009696963180974797 0.009905378281890581 0.010093066095544561 0.010258857286072403 0.010401766015552462 0.010521007886428953 0.010616016065816683 0.010686455344294642 0.010732233911347417
0.010753512662495598 0.010750711888497145 0.010724515233874955 0.010675870849486457 0.010605989700967546 0.010516341030775265 0.010408645005421418 0.010284862610647373 0.01014718288519163 0.009998007608060897
0.00983993357462068 0.009675732613345702 0.00950832950786873 0.009340777998368265 0.009176235042829788 0.009017933522924756 0.008869153581904612 0.008733192783797266 0.008613335285143024 0.008512820213318093
0.008434809449905862 0.008382355024219539 0.008358366331434774 0.008365577402148393 0.008406514465612287 0.008483464067230067 0.0085984420217247 0.008753163506007626 0.008949014619278162 0.009187025761105371
0.009467847199853139 0.009791727222316974 0.01015849326927265 0.010567536469189542 0.01101779998207558 0.011507771555850452 0.012035480677533053 0.012598500669879921 0.013193956040251961 0.013818535332122878
0.014468509660911573 0.015139757035311913 0.015827792474069867 0.016527803827753547 0.01723469310745483 0.01794312300993616 0.01864756821423128 0.019342370911126387 0.020021799917484023 0.020680112625294185
3.3971183629087235E-4 2.786659660430029E-4 2.280343664850436E-4 1.8614865385131976E-4 1.515873214404914E-4 1.231429302092379E-4 9.97930016123325E-5 8.067430937963269E-5 6.50602712970308E-5 5.2341150853668925E-5
4.2006790826339334E-5 3.3631615604244234E-5 2.6861655538445805E-5 2.1403364167251166E-5 1.7014017264019516E-5 1.3493500818400461E-5 1.0677312926634305E-5 8.430621842779391E-6 6.643238913384081E-6 5.225380627938059E-6
4.104108464023153E-6 3.220348531394517E-6 2.5264052016091397E-6 1.9838939568653944E-6 1.5620286338129302E-6 1.236207122801363E-6 9.868474702480384E-7 7.984332896212399E-7 6.587334878504801E-7 5.581666337020078E-7
4.892849075110606E-7 4.4635655046141396E-7 4.2502914599998254E-7 4.220589815627545E-7 4.350942165186128E-7 4.6250167808865E-7 5.032288718545132E-7 5.566942731536222E-7 6.227002010896617E-7 7.013636043171199E-7
7.930609390778591E-7 8.983840230358923E-7 1.0181043274578723E-6 1.153143646085208E-6 1.30454946953051E-6 1.47347371445745E-6 1.661153720090415E-6 1.8688946416260935E-6 2.0980525499778606E-6 2.350017697519312E-6
2.6261975363068914E-6 2.9279991836941497E-6 3.2568111243440694E-6 3.6139840205820515E-6 4.000810577253667E-6 4.418504474570088E-6 4.868178444109997E-6 5.350821620013674E-6 5.867276349880498E-6 6.418214698072033E-6
7.0041149178779516E-6 7.6252382079611804E-6 8.281606102155125E-6 8.97297886942137E-6 9.69883532192423E-6 1.0458354443055618E-5 1.1250399253200292E-5 1.207350332848856E-5 1.2925860376274409E-5 1.3805317250273558E-5
1.4709370758047001E-5 1.563516857386743E-5 1.657951452121821E-5 1.7538878431743395E-5 1.8509410722116438E-5 1.948696175799146E-5 2.0467105996128906E-5 2.1445170813344503E-5 2.2416269845698612E-5 2.337534057505522E-5
2.4317185814644417E-5 2.523651866248346E-5 2.612801041339248E-5 2.6986340848801998E-5 2.7806250260431415E-5 2.8582592510932223E-5 2.931038839325867E-5 2.9984878522159767E-5 3.060157497679897E-5 3.1156310913828576E-5
3.164528738565463E-5 3.206511662916009E-5 3.2412861135470624E-5 3.268606787076127E-5 3.288279709055378E-5 3.300164527407865E-5 3.304176179938921E-5 3.3002859082089104E-5 3.288521600862414E-5 3.2689674606802086E-5
3.241763000914583E-5 3.207101387643472E-5 3.1652271556952084E-5 3.116433335924045E-5 3.06105804104184E-5 2.9994805656403774E-5 2.9321170633036434E-5 2.8594158696714137E-5 2.781852544870099E-5 2.6999247118034325E-5
2.6141467683603615E-5 2.525044551653402E-5 2.4331500309852037E-5 2.3389961034263324E-5 2.2431115617753164E-5 2.1460162993926415E-5 2.048216810106345E-5 1.9502020342490043E-5 1.8524395940884975E-5 1.755372453650159E-5
1.6594160293910605E-5 1.564955769570709E-5 1.4723452116524718E-5 1.3819045188411196E-5 1.2939194890730752E-5 1.2086410225693305E-5 1.1262850275564483E-5 1.0470327380578994E-5 9.710314128312285E-6 8.983953806285992E-6
8.29207394018819E-6 7.63520252036201E-6 7.013586509043991E-6 6.427212219934412E-6 5.875827169627899E-6 5.358963016689647E-6 4.875959228111662E-6 4.4259871438703985E-6 4.0080741476636394E-6 3.621127694994241E-6
3.2639589980119014E-6 2.9353062194356675E-6 2.633857085090666E-6 2.358270885878692E-6 2.107199905302025E-6 1.8793103780911506E-6 1.673303159356E-6 1.4879343624863455E-6 1.322036308461221E-6 1.1745392201624473E-6
1.04449419376316E-6 9.310980864604297E-7 8.337210770308465E-7 7.519377842659424E-7 6.855629696573032E-7 6.346930060647945E-7 5.997544646992666E-7 5.815613595475945E-7 5.813827920022776E-7 6.010229591266705E-7
6.429157263141733E-7 7.102362179905065E-7 8.070321464943375E-7 9.383778763459496E-7 1.1105545045584288E-6 1.3312595218599137E-6 1.6098498975244695E-6 1.957622693086474E-6 2.3881375468200944E-6 2.917585568819067E-6
3.565209331094264E-6 4.353778711541258E-6 5.310127336133393E-6 6.465754239590455E-6 7.857495108715068E-6 9.528267060879275E-6 1.1527890318180479E-5 1.3913989340626559E-5 1.675297495478071E-5 2.012110773425308E-5
2.4105641334130863E-5 2.8806042635094116E-5 3.4335283401374073E-5 4.0821195692618E-5 4.840788049323252E-5 5.725715594286219E-5 6.755002818754121E-5 7.948816425369628E-5 9.329534252041562E-5 1.0921885238719227E-4
1.2753081067736974E-4 1.485293582697421E-4 1.7253969651549403E-4 1.9991491929288762E-4 2.3103659320956583E-4 2.663150356258529E-4 3.061892379952709E-4 3.511263806605891E-4 4.01620884867539E-4 4.581929485247118E-4
5.213865143006954E-4 5.917666221493537E-4 6.699161034135663E-4 7.564315803737756E-4 8.519187435455868E-4 9.56986889217958E-4 0.0010722427116434084 0.0011982833578779832 0.0013356887684021724 0.0014850133431572798
0.0016467769902703039 0.0018214556332193177 0.0020094712711605832 0.0022111817061941396 0.0024268700700354417 0.0026567343003990086 0.002900876733868022 0.0031592939965896 0.0034318673862656517 0.003718353948084406
0.0040183784529698 0.004331426488376234 0.0046568388694497335 0.00499380757142323 0.0053413733724177945 0.005698425379302266 0.006063702587958552 0.0064357976033774834 0.006813162614773769 0.007194117686792994
0.007576861390453815 0.00795948375741054 0.008339981499225881 0.008716275390492169 0.009086229671780749 0.009447673286522285 0.009798422726032194 0.010136306219982478 0.010459188976629818 0.010764999148905443
0.011051754179817542 0.011317587164142598 0.011560772853562088 0.011779752929536886 0.011973160172418194 0.012139841166491186 0.012278877198559596 0.012389603031846986 0.012471623266771497 0.012524826034756784
0.012549393809747334 0.012545811163483946 0.012514869333781922 0.012457667518935088 0.012375610854853636 0.012270405073601866 0.012144047881695241 0.011998817133040119 0.011837255904109797 0.011662154607391319
0.011476530303054492 0.011283603388149956 0.011086771857609177 0.010889583342274915 0.010695705136697905 0.010508892434216122 0.0103329549897305 0.010171722432527511 0.010029008453431233 0.009908574093430527
0.009814090365584394 0.009749100449199759 0.009716981705567148 0.0097209077782788 0.009763811058437554 0.00984834581570894 0.009976852319695938 0.01015132230175098 0.01037336613402337 0.010644182128952906
0.010964528387020975 0.011334697641649957 0.01175449556588447 0.012223223014047026 0.012739662671135181 0.013302070571648655 0.01390817292634985 0.014555168659015828 0.015239738004752045 0.015958057456564895
0.016705821267782285 0.017478269625242605 0.018270223503163333 0.019076126092012403 0.019890090572815846 0.02070595387788748 0.02151733594711481 0.022317703858138336 0.023100440082700922 0.023858914003886792
3.3684552270561767E-4 2.7631479092319624E-4 2.261104642553135E-4 1.8457823871708464E-4 1.503086046937729E-4 1.221043144597584E-4 9.895152071814296E-5 7.999428541263124E-5 6.45121624030772E-5 5.1900566317287445E-5
4.1653651997423515E-5 3.334944356742329E-5 2.6636968490069687E-5 2.122516940110851E-5 1.6873384450430085E-5 1.3383204891589975E-5 1.0591536374782604E-5 8.364707528731082E-6 6.5934857484452895E-6 5.188875484470924E-6
4.078588653561318E-6 3.2040900030845608E-6 2.5181323404518706E-6 1.9827074919290938E-6 1.5673487124933396E-6 1.2477290770763035E-6 1.0045082029727576E-6 8.223865509114417E-7 6.893326005670209E-7 5.959534694215594E-7
5.349841159580644E-7 5.008742114079594E-7 4.894551477665992E-7 4.976725386056903E-7 5.233720238218452E-7 5.651282654176773E-7 6.221087692224501E-7 6.939656326193327E-7 7.807495414942057E-7 8.828413567762079E-7
1.0008974737994E-6 1.1358058339833865E-6 1.288650042070345E-6 1.4606795141363658E-6 1.6532839696357123E-6 1.86797090003364E-6 2.1063449100153577E-6 2.3700880456656676E-6 2.660940406454618E-6 2.9806804918429686E-6
3.3311048649897834E-6 3.7140068303830596E-6 4.131153923186309E-6 4.584264098783435E-6 5.074980593733658E-6 5.604845505786732E-6 6.1752722118590024E-6 6.787516809554645E-6 7.44264883014984E-6 8.141521528812763E-6
8.88474211080962E-6 9.67264229992495E-6 1.0505249696528812E-5 1.1382260406769621E-5 1.2303013450331971E-5 1.3266467471143964E-5 1.427118028247777E-5 1.5315291774286252E-5 1.6396510695735992E-5 1.751210579929732E-5
1.865890179422271E-5 1.9833280506831905E-5 2.1031187583049326E-5 2.2248144995720777E-5 2.347926953629202E-5 2.4719297378678257E-5 2.5962614704093308E-5 2.720329427100834E-5 2.8435137706281113E-5 2.9651723184027556E-5
3.0846458050350934E-5 3.2012635847032725E-5 3.3143497088190784E-5 3.423229305316087E-5 3.52723517787897E-5 3.6257145367114744E-5 3.718035767197467E-5 3.8035951392110775E-5 3.8818233580064904E-5 3.952191857658854E-5
4.014218739982231E-5 4.067474265723519E-5 4.111585810579702E-5 4.146242206122429E-5 4.171197394904469E-5 4.186273339693717E-5 4.1913621387188276E-5 4.186427311771258E-5 4.171504235719832E-5 4.1466997221646174E-5
4.112190744283727E-5 4.0682223341020104E-5 4.0151046851312566E-5 3.9532095083061196E-5 3.882965701096008E-5 3.804854400365442E-5 3.71940349877089E-5 3.6271817120448865E-5 3.528792290295779E-5 3.424866470354036E-5
3.316056768181026E-5 3.203030210426839E-5 3.086461602428143E-5 2.9670269263662804E-5 2.845396958089569E-5 2.7222311844065817E-5 2.5981720946726757E-5 2.4738399114371438E-5 2.3498278150265124E-5 2.2266977064546576E-5
2.104976542220032E-5 1.985153263618598E-5 1.8676763324039108E-5 1.7529518741844677E-5 1.641342421064667E-5 1.5331662358890804E-5 1.4286971921927426E-5 1.3281651767175212E-5 1.2317569752218335E-5 1.1396175973534454E-5
1.0518519926100323E-5 9.685271068890275E-6 8.896742278118932E-6 8.152915668612193E-6 7.45347027336216E-6 6.797811091435882E-6 6.185099044158134E-6 5.614281418018499E-6 5.0841224191848805E-6 4.593233517995647E-6
4.14010332157385E-6 3.7231267780944835E-6 3.3406335867152637E-6 2.9909157624050345E-6 2.6722543847200753E-6 2.3829456440553956E-6 2.1213263883321245E-6 1.8857994680066513E-6 1.6748592784687914E-6 1.48711800732415E-6
1.321333210923281E-6 1.1764374711754984E-6 1.0515710216702797E-6 9.461183830119291E-7 8.597502126598915E-7 7.924717560097648E-7 7.446794843512422E-7 7.172277228493773E-7 7.115073085881552E-7 7.295385752507158E-7
7.740812367811657E-7 8.487640361351605E-7 9.582373347179683E-7 1.1083521398564428E-6 1.3063693967707194E-6 1.5612037015047331E-6 1.8837059138341553E-6 2.2869894539919006E-6 2.786805341671963E-6 3.401971265441237E-6
4.154860138282067E-6 5.071953680985174E-6 6.184466557651623E-6 7.529046442578759E-6 9.148555099288996E-6 1.1092935072827184E-5 1.3420165907060295E-5 1.619731287052888E-5 1.9501669978813725E-5 2.3421997611215592E-5
2.8059853210194614E-5 3.353101140275362E-5 3.9966967378414634E-5 4.75165144901769E-5 5.634738381297316E-5 6.664792980910117E-5 7.86288423342739E-5 9.252486100732807E-5 1.0859646351230073E-4 1.2713149477096484E-4
1.4844669920161156E-4 1.7288911356828663E-4 2.008372733440432E-4 2.327021811994366E-4 2.689279823367798E-4 3.09992288088998E-4 3.564060866677084E-4 4.087131783645132E-4 4.674890720715997E-4 5.333392808797143E-4
6.068969569123422E-4 6.888198096285815E-4 7.797862577162242E-4 8.804907725138294E-4 9.916383807219741E-4 0.0011139383060215981 0.001248096743091621 0.0013948087733319787 0.0015547494492128254 0.0017285640933797375
0.0019168578791748812 0.0021201847807423113 0.002339036002964316 0.0025738280236541912 0.0028248904021849256 0.003092453529494184 0.0033766365135716393 0.00367743541148535 0.003994712033118954 0.0043281835524662205
0.00467741316899566 0.00504180206374481 0.005420582891995131 0.005812815046275797 0.006217381909821426 0.006632990301369248 0.0070581722873707484 0.0074912895075064925 0.007930540124184713 0.008373968466980014
0.008819477399385904 0.009264843388613542 0.00970773421038899 0.010145729170809295 0.010576341677418869 0.010997043942913787 0.011405293558445 0.011798561630522664 0.012174362137124375 0.012530282125789103
0.012864012350124571 0.01317337792200436 0.01345636854533521 0.013711167893986997 0.013936181701432517 0.014130064142749657 0.014291742110574684 0.014420437014827862 0.014515683770815153 0.014577346680723883
0.014605631958498747 0.01460109669642187 0.014564654122164414 0.014497575046338715 0.014401485451387372 0.014278360221795051 0.014130513062003199 0.01396058269110528 0.013771515441643872 0.013566544423083231
0.013349165438488082 0.013123109865548922 0.012892314730548207 0.012660890216592995 0.01243308485609396 0.012213248662880802 0.012005794462485161 0.011815157681062727 0.01164575485527563 0.01150194112830234
0.01138796700199096 0.011307934622887443 0.011265753891118795 0.011265098696307893 0.011309363603966557 0.011401621338959174 0.01154458143911411 0.011740550481004947 0.011991394310119818 0.012298502737574598
0.012662757193439919 0.013084501850681218 0.013563518751568958 0.014099007478081179 0.014689569907218349 0.015333200579361708 0.016027283181153262 0.016768593602527932 0.01755330996957945 0.018377029980490196
0.019234795780967612 0.02012112650927408 0.02103005852040691 0.02195519316630392 0.022889751866723478 0.02382663805683157 0.024758505446139032 0.02567783187324535 0.026576997896090335 0.02744836912242101
3.3333648006953344E-4 2.7343640077347935E-4 2.2375515856641858E-4 1.8265568650496314E-4 1.4874316231658707E-4 1.2083281494290634E-4 9.79213638762379E-5 7.916179367653615E-5 6.384117035054503E-5 5.136121490554462E-5
4.122136136989488E-5 3.300404102864146E-5 2.6361950794550677E-5 2.1007080872362522E-5 1.6701294629805397E-5 1.3248271412552727E-5 1.0486640569542345E-5 8.284151906830131E-6 6.532743949262408E-6 5.144386607361712E-6
4.047589021423763E-6 3.1844764289381735E-6 2.5083518538009282E-6 1.9816692537996344E-6 1.5743545163191028E-6 1.2624194077876595E-6 1.026821318816572E-6 8.525284710932457E-7 7.277562354030951E-7 6.433454261937725E-7
5.922579601966249E-7 5.691691662730824E-7 5.701393792552043E-7 5.923503065290367E-7 6.338940823566263E-7 6.936049764760239E-7 7.709254504044067E-7 8.65799702193967E-7 9.785890484517762E-7 1.1100044969680754E-6
1.261052695765629E-6 1.4329921323035325E-6 1.6272970238569875E-6 1.845626807406187E-6 2.089799522435964E-6 2.3617676980045536E-6 2.6635956191116043E-6 2.997437067579137E-6 3.365512818370216E-6 3.770087330964116E-6
4.213444213177143E-6 4.697860156568247E-6 5.225577152165915E-6 5.798772895658937E-6 6.41952938458201E-6 7.089799797888805E-6 7.811373831532164E-6 8.58584174264852E-6 9.414557429618947E-6 1.029860094523417E-5
1.123874090471414E-5 1.2235397308474698E-5 1.3288605350188713E-5 1.4397980822634121E-5 1.5562687765806222E-5 1.6781409022559333E-5 1.805232037548124E-5 1.937306893377881E-5 2.074075641985059E-5 2.215192797136482E-5
2.3602567025768212E-5 2.5088096790266165E-5 2.6603388721833862E-5 2.814277834951769E-5 2.970008866631749E-5 3.126866120184217E-5 3.2841394761599324E-5 3.441079168644941E-5 3.5969011348961546E-5 3.750793046492808E-5
3.9019209661093723E-5 4.049436560731672E-5 4.192484789602128E-5 4.330211973700404E-5 4.461774143437395E-5 4.586345552738113E-5 4.703127241056993E-5 4.8113555203167334E-5 4.9103102614532743E-5 4.999322855300721E-5
5.077783725022508E-5 5.145149272194249E-5 5.200948145915071E-5 5.244786733857787E-5 5.276353785793787E-5 5.295424093626961E-5 5.301861167072472E-5 5.2956188605107815E-5 5.276741923891492E-5 5.24536546848678E-5
5.201713356416846E-5 5.146095540800953E-5 5.078904400743524E-5 5.00061013177697E-5 4.911755267506686E-5 4.812948421728801E-5 4.704857351948387E-5 4.5882014547923717E-5 4.463743811119588E-5 4.332282903567061E-5
4.1946441317821955E-5 4.0516712506800606E-5 3.904217854793313E-5 3.7531390272652984E-5 3.5992832654383224E-5 3.44348478651706E-5 3.28655630668663E-5 3.129282375610182E-5 2.9724133357173142E-5 2.8166599624306602E-5
2.6626888277766337E-5 2.5111184159962657E-5 2.3625160061116906E-5 2.21739532319274E-5 2.0762149475612208E-5 1.9393774595950457E-5 1.8072292873422355E-5 1.6800612149842357E-5 1.5581095024184602E-5 1.4415575599439716E-5
1.3305381172779247E-5 1.2251358229147321E-5 1.125390208144529E-5 1.0312989498240457E-5 9.428213671690755E-6 8.598820903232161E-6 7.823748421478418E-6 7.101662794620696E-6 6.4309984572412195E-6 5.809995937761274E-6
5.236739446698401E-6 4.7091935666124534E-6 4.2252388713469945E-6 3.782706394406992E-6 3.379410963779385E-6 3.0131835231913344E-6 2.6819026679809024E-6 2.38352573798454E-6 2.1161199309675336E-6 1.8778940292515757E-6
1.6672314706920726E-6 1.4827256446058245E-6 1.3232184553924122E-6 1.1878433732846077E-6 1.0760743847882372E-6 9.87782466757949E-7 9.233014393618274E-7 8.835053057850863E-7 8.698994613473781E-7 8.84728452099777E-7
9.311032824931885E-7 1.0131516119636162E-6 1.1361945386721898E-6 1.306954041171429E-6 1.5337955298049966E-6 1.8270103416716429E-6 2.1991433863756374E-6 2.6653715026054453E-6 3.2439384033796085E-6 3.956652353464308E-6
4.829452916133377E-6 5.8930532054558705E-6 7.183664059285791E-6 8.74380637915915E-6 1.0623217536184427E-5 1.287985718471577E-5 1.558101702487933E-5 1.8804537977166184E-5 2.2640136844099278E-5 2.719084280387232E-5
3.257454198026821E-5 3.892562583803777E-5 4.6396736245412287E-5 5.5160596715713226E-5 6.541191558824491E-5 7.736934274692608E-5 9.127745692939623E-5 1.0740875579144133E-4 1.2606561572077723E-4 1.475821830187696E-4
1.723261525868028E-4 2.0070038478455575E-4 2.331443058100314E-4 2.7013503194517834E-4 3.1218815349444114E-4 3.5985811041079017E-4 4.1373808866191703E-4 4.7445936455438797E-4 5.426900237251562E-4 6.19132982545229E-4