# vtk DataFile Version 2.0 
Volume data
ASCII
DATASET STRUCTURED_POINTS
DIMENSIONS 300 300 1
SPACING 1 1 1
ORIGIN 0 0 0
POINT_DATA 90000
SCALARS volume_scalars double
LOOKUP_TABLE default 
3.494659573615932E-4 2.866799481599717E-4 2.3460165242666377E-4 1.9151651674937216E-4 1.559635052186116E-4 1.2670144872247723E-4 1.0267918287081715E-4 8.300916594003084E-5 6.694427224881678E-5 5.385746498839257E-5
4.3224064702998945E-5 3.460634443076879E-5 2.764019917172949E-5 2.2023655163490926E-5 1.75070028392033E-5 1.3884355840825635E-5 1.0986456680269834E-5 8.67456728130189E-6 6.835299469443901E-6 5.3762563427109265E-6
4.222370244663943E-6 3.3128367106887393E-6 2.5985562440718806E-6 2.0400071061386217E-6 1.6054825039706084E-6 1.2696346774751315E-6 1.0122764851829328E-6 8.173982341094675E-7 6.723637674394769E-7 5.672552910336469E-7
4.943411620886439E-7 4.4764495515025875E-7 4.225976333629475E-7 4.1575765351683073E-7 4.245863845889037E-7 4.472683784640289E-7 4.825678505512189E-7 5.297142540871854E-7 5.883111070155436E-7 6.582632916289816E-7
7.397189273575734E-7 8.330226447264301E-7 9.386776883502613E-7 1.0573147702182957E-6 1.1896659997222873E-6 1.3365425494410843E-6 1.498814988763647E-6 1.6773954420491286E-6 1.8732209133941817E-6 2.087237273820215E-6
2.3203835350512823E-6 2.573576142092671E-6 2.8476931085990753E-6 3.1435578977392848E-6 3.4619230193936166E-6 3.8034533739207246E-6 4.16870942474847E-6 4.558130327601444E-6 4.972017183852182E-6 5.410516619572079E-6
5.873604920445949E-6 6.361072975724781E-6 6.872512301641364E-6 7.407302425955835E-6 7.964599920266242E-6 8.54332936516301E-6 9.14217652502761E-6 9.75958399415567E-6 1.0393749553913612E-5 1.104262745192994E-5
1.1703932779136547E-5 1.237514907922424E-5 1.3053539278330596E-5 1.3736159971267807E-5 1.441987904520122E-5 1.5101396563432374E-5 1.577726877196103E-5 1.644393503104806E-5 1.7097747414390404E-5 1.773500266110768E-5
1.8351976111901713E-5 1.8944957211816826E-5 1.9510286119286956E-5 2.0044390925771392E-5 2.054382496330171E-5 2.1005303659557412E-5 2.1425740392328426E-5 2.1802280797870855E-5 2.2132335000921295E-5 2.2413607257979904E-5
2.2644122539598394E-5 2.2822249621278006E-5 2.294672030539962E-5 2.301664445735206E-5 2.303152060648261E-5 2.2991241935258208E-5 2.2896097556577036E-5 2.274676905786275E-5 2.2544322369730404E-5 2.229019509492509E-5
2.198617950823844E-5 2.163440150861172E-5 2.123729586916005E-5 2.079757818808539E-5 2.0318213992252288E-5 1.9802385484663868E-5 1.9253456456516516E-5 1.867493590349994E-5 1.8070440894367278E-5 1.7443659237610877E-5
1.679831247966592E-5 1.613811974598788E-5 1.5466762905376463E-5 1.4787853499002438E-5 1.4104901829841542E-5 1.3421288556855203E-5 1.2740239082593384E-5 1.2064800964284357E-5 1.1397824518287367E-5 1.074194672735721E-5
1.0099578500788962E-5 9.472895280368742E-6 8.863830931238788E-6 8.274074807236287E-6 7.705071835783991E-6 7.158025428635524E-6 6.633902992176935E-6 6.13344378486535E-6 5.657168849887738E-6 5.205392738238039E-6
4.778236730991902E-6 4.375643269333694E-6 3.997391306487153E-6 3.6431123066647975E-6 3.3123066319676933E-6 3.0043600782894157E-6 2.7185603451458664E-6 2.454113251418406E-6 2.210158538748395E-6 1.98578513629663E-6
1.7800457943963523E-6 1.5919710299864406E-6 1.4205823634208194E-6 1.2649048642347387E-6 1.1239790627565281E-6 9.968723252648067E-7 8.826898330190721E-7 7.805853503838481E-7 6.897720150020791E-7 6.095334342551496E-7
5.392354278915458E-7 4.783388176303177E-7 4.2641373174456414E-7 3.8315596715594023E-7 3.4840603449936763E-7 3.2217160401220487E-7 3.046541729715041E-7 2.9628088964602043E-7 2.977425950760118E-7 3.100392829337133E-7
3.345343294217761E-7 3.7301900939877336E-7 4.277889909361505E-7 5.017346869525151E-7 5.984475373544131E-7 7.223444953070053E-7 8.788131929663667E-7 1.0743804602443983E-6 1.316907058766361E-6 1.6158116646406398E-6
1.9823272791316374E-6 2.4297933555160537E-6 2.973986991565374E-6 3.6334965370582226E-6 4.430140889965426E-6 5.389437587741935E-6 6.541122524795825E-6 7.919723726292245E-6 9.56519106430664E-6 1.1523583097486878E-5
1.3847811333125823E-5 1.6598441135674074E-5 1.9844547225300452E-5 2.3664620214347744E-5 2.8147518912731835E-5 3.339346119492839E-5 3.9515044066728216E-5 4.663828121217958E-5 5.4903643760981174E-5 6.44670873240631E-5
7.550104554006732E-5 8.819536750822689E-5 1.0275817361491051E-4 1.1941660146379607E-4 1.3841741097581366E-4 1.600274153270144E-4 1.845337023414159E-4 2.122436093597219E-4 2.434844135765409E-4 2.7860269949356493E-4
3.1796336558834496E-4 3.6194823365752243E-4 4.109542266609189E-4 4.6539108435705303E-4 5.256785906523452E-4 5.922432924346098E-4 6.655146967487894E-4 7.459209414908719E-4 8.338839443018546E-4 9.298140449564517E-4
0.0010341041681403017 0.0011471235459319833 0.001269211052348295 0.0014006682157281566 0.001541751988239432 0.0016926673650780849 0.0018535599586458726 0.0020245086447762276 0.0022055184085516513 0.0023965135260405673
0.0025973312250070647 0.00280771597196484 0.0030273145345399025 0.0032556719667049113 0.0034922286598367855 0.0037363185945829824 0.003987168917131632 0.004243900948683581 0.004505532718828536 0.004770983092335213
0.005039077534872807 0.005308555536777621 0.005578079685637607 0.005846246348739605 0.006111597895924638 0.006372636362789499 0.006627838424154737 0.00687567151899825 0.007114610941332093 0.007343157687448111
0.007559856829197527 0.007763316166051071 0.007952224896070238 0.008125372037962427 0.008281664333329705 0.008420143360161786 0.008540001595542995 0.008640597177283528 0.00872146713045834 0.00878233884523401
0.008823139616369052 0.008844004081780084 0.00884527942690004 0.008827528252495538 0.008791529035418385 0.008738274143710527 0.008668965398862489 0.008585007208205266 0.008487997318836815 0.008379715270692117
0.00826210865002177 0.008137277265437762 0.008007455386737004 0.00787499220197564 0.00774233066091386 0.007611984883266908 0.007486516318558397 0.007368508851218093 0.007260543050380154 0.007165169769109463
0.0070848833029797005 0.007022094323459831 0.006979102807762021 0.00695807119387758 0.0069609979975565036 0.006989692136895681 0.007045748219753602 0.0071305230590020495 0.007245113690096491 0.007390337173889728
0.0075667124742007374 0.007774444703465453 0.00801341202986799 0.008283155534704434 0.008582872298427401 0.008911411977012918 0.009267277106273215 0.009648627339991979 0.010053287787993956 0.010478761572458882
0.01092224666522715 0.011380657006111189 0.011850647833229451 0.012328645082342507 0.01281087863460239 0.013293419112798752 0.013772217847080274 0.01424314955438421 0.014702057203646752 0.015144798473531985
3.4780946450913285E-4 2.853211386772638E-4 2.3348977584389E-4 1.9060895274045772E-4 1.552245622306442E-4 1.261013222082558E-4 1.0219305517675011E-4 8.261643136610088E-5 6.66278722428748E-5 5.3603319841853525E-5
4.302058946219768E-5 3.4444038015250274E-5 2.751129688883737E-5 2.1921835922260467E-5 1.7427143392971963E-5 1.3822325326602177E-5 1.0938945575018285E-5 8.638945663580642E-6 6.809500163039789E-6 5.358679131533473E-6
4.2118038902304704E-6 3.3083959803382755E-6 2.599631575006031E-6 2.046224892879002E-6 1.6166743100794431E-6 1.285813941416538E-6 1.0336215197306212E-6 8.442405131330919E-7 7.051806572846947E-7 6.066665197585615E-7
5.411084318958902E-7 5.026741944926459E-7 4.869434581237581E-7 4.906296638099814E-7 5.11356967267117E-7 5.474817173135352E-7 5.979498681378137E-7 6.621832228779232E-7 7.399886741658584E-7 8.314856630103043E-7
9.370479532221772E-7 1.0572565430031137E-6 1.192861133013284E-6 1.3447480624994463E-6 1.5139130301274665E-6 1.7014372495367305E-6 1.908465964427641E-6 2.1361884752098607E-6 2.385819018040808E-6 2.658577995034156E-6
2.9556731876967746E-6 3.27828069924756E-6 3.6275254693474863E-6 4.00446129001706E-6 4.410050326480618E-6 4.8451422130738275E-6 5.310452853369739E-6 5.806543106070614E-6 6.3337975843723785E-6 6.892403836543965E-6
7.482332209267269E-6 8.10331672258648E-6 8.754837305750065E-6 9.436103756373899E-6 1.0146041790786934E-5 1.0883281550758464E-5 1.1646148920745523E-5 1.2432659990149657E-5 1.3240518966791494E-5 1.40671198110221E-5
1.4909551814903666E-5 1.5764609298220734E-5 1.6628805533443257E-5 1.7498390946077053E-5 1.836937556621778E-5 1.9237555632875477E-5 2.00985441762024E-5 2.0947805325727567E-5 2.178069201674927E-5 2.2592486693890413E-5
2.3378444542229717E-5 2.4133838714080447E-5 2.485400696503597E-5 2.5534399067822895E-5 2.617062433813194E-5 2.6758498584040743E-5 2.7294089780757407E-5 2.777376177578622E-5 2.8194215346507046E-5 2.8552525962535268E-5
2.884617764870176E-5 2.9073092400376376E-5 2.923165467014173E-5 2.9320730522204967E-5 2.933968113686966E-5 2.9288370440083544E-5 2.9167166730596398E-5 2.8976938277507598E-5 2.8719042961820635E-5 2.8395312134872902E-5
2.8008028962056515E-5 2.7559901610059884E-5 2.7054031718058293E-5 2.6493878666191193E-5 2.5883220216837186E-5 2.5226110154470444E-5 2.452683358738632E-5 2.378986059877329E-5 2.301979894525474E-5 2.2221346498235838E-5
2.1399244107576485E-5 2.0558229538988466E-5 1.9702993097097516E-5 1.883813549653487E-5 1.796812848513855E-5 1.709727865791001E-5 1.6229694829459194E-5 1.5369259258005013E-5 1.4519602937319898E-5 1.3684085096025156E-5
1.286577696799228E-5 1.2067449824803614E-5 1.1291567192656663E-5 1.054028111296161E-5 9.815432249198015E-6 9.118553593176262E-6 8.450877482286731E-6 7.813345606003097E-6 7.206621655015122E-6 6.6311062498843245E-6
6.08695377785247E-6 5.5740907660368395E-6 5.092235426237068E-6 4.6409180203700175E-6 4.219501715478334E-6 3.827203622617433E-6 3.463115743989211E-6 3.1262255867458935E-6 2.8154362392631495E-6 2.5295857457707104E-6
2.2674656575164675E-6 2.0278386827192362E-6 1.8094554031591496E-6 1.6110700722274933E-6 1.43145555762707E-6 1.2694175418594823E-6 1.12380814549988E-6 9.935391925503651E-7 8.775953945488664E-7 7.750477914106153E-7
6.850678531534399E-7 6.069427187867497E-7 5.400921279047554E-7 4.840876881641007E-7 4.386752191222465E-7 4.0380102113198314E-7 3.7964303833004124E-7 3.666480182985541E-7 3.6557591859296577E-7 3.7755297261353156E-7
4.0413500446995177E-7 4.473827742903642E-7 5.099513410024467E-7 5.951956473910346E-7 7.072947597851634E-7 8.513974286265613E-7 1.0337918718664777E-6 1.262102914799538E-6 1.5455198403385134E-6 1.8950585041070547E-6
2.323861438705604E-6 2.8475397990348566E-6 3.4845610718858673E-6 4.25668647269548E-6 5.189461863413382E-6 6.312765829412153E-6 7.661418230725366E-6 9.275852073246543E-6 1.1202850908152069E-5 1.3496353142248768E-5
1.621832360863876E-5 1.9439691488222623E-5 2.324135217297716E-5 2.7715228910172232E-5 3.296538805606342E-5 3.910919949743791E-5 4.6278531276199974E-5 5.462096469090139E-5 6.43010131742264E-5 7.550132509210254E-5
8.842384732500578E-5 1.032909231341029E-4 1.2034629445573848E-4 1.398559754917189E-4 1.621089613665132E-4 1.874177328140928E-4 2.1611851545496073E-4 2.485712503545495E-4 2.8515923134990933E-4 3.2628836422728987E-4
3.723860033627859E-4 4.238993230299725E-4 4.812931833511575E-4 5.450474549258378E-4 6.156537715942266E-4 6.936116876428779E-4 7.794242240595614E-4 8.735927981859627E-4 9.766115422493056E-4 0.001088961028682833
0.0012111014337288948 0.0013434651853664068 0.001486449156878097 0.001640406483085222 0.0018056380920974018 0.0019823840609827664 0.002170814918655316 0.0023710230330748192 0.002583014232118585 0.002806699817770106
0.00304188914114325 0.0032882829109142303 0.0035454674095957584 0.0038129097904421616 0.004089954622368868 0.004375821840935223 0.004669606250094163 0.004970278702076747 0.005276689061580496 0.005587571035604388
0.005901548922168156 0.00621714630022443 0.006532796649874542 0.006846855857177155 0.007157616522114842 0.0074633239524343345 0.007762193690918862 0.008052430390014242 0.008332247816438328 0.008599889740240549
0.008853651438474264 0.00909190152384417 0.009313103793934479 0.00951583878732795 0.009698824729368592 0.009860937552630655 0.010001229685303226 0.010118947314500307 0.010213545850622029 0.010284703342845366
0.01033233162400759 0.010356584994852275 0.010357866292044052 0.01033683022068082 0.010294383869371813 0.010231684363449062 0.010150133648716754 0.01005137043356793 0.00993725935065429 0.009809877430047857
0.009671498003580928 0.009524572184544434 0.009371708088067008 0.009215647975344564 0.009059243519644416 0.008905429403997925 0.008757195470159265 0.008617557646259441 0.008489527887187992 0.008376083367663607
0.008280135173757232 0.008204496744792344 0.008151852324453684 0.008124725687843323 0.00812544942023024 0.008156135033267061 0.008218644215227241 0.008314561522886007 0.008445168833383379 0.008611421883952012
0.008813929234810506 0.00905293399475322 0.009328298648885763 0.009639493322431131 0.009985587802474126 0.010365247619940359 0.010776734466195934 0.011217911181802402 0.011686251508830986 0.012178854742704064
0.012692465355108507 0.013223497586795497 0.013768064929094008 0.014322014327137011 0.014880964847878358 0.015440350464018772 0.01599546651325697 0.01654151930331682 0.0170736782495527 0.017587129856203743
3.4546697988945024E-4 2.833996036472063E-4 2.3191742225225315E-4 1.8932550899023576E-4 1.5417955434394897E-4 1.2525260057481981E-4 1.0150552160401325E-4 8.206094311960104E-5 6.618030180957063E-5 5.324375113529439E-5
4.2732633093242744E-5 3.421425005759234E-5 2.7328687262520595E-5 2.1777454092901263E-5 1.7313730535554828E-5 1.3734023429771164E-5 1.0871055166516364E-5 8.587724923706708E-6 6.7719991660054755E-6 5.332603820800449E-6
4.195405160397909E-6 3.3003799124422687E-6 2.599087461856236E-6 2.0525682039149946E-6 1.6296021886001986E-6 1.3052712080210765E-6 1.059775481103448E-6 8.774631511550469E-7 7.460370056023698E-7 6.559082286616808E-7
5.996716824002194E-7 5.71681253203207E-7 5.677072696126654E-7 5.846609603290483E-7 6.203734397001106E-7 6.734188390981736E-7 7.429729979049796E-7 8.287006339661692E-7 9.306651719620959E-7 1.0492564560539592E-6
1.1851324428553138E-6 1.3391716905994575E-6 1.512434054924549E-6 1.7061274921897058E-6 1.921579275830944E-6 2.1602102654198073E-6 2.42351114485558E-6 2.713019776449862E-6 3.0302990106505535E-6 3.376914454291877E-6
3.7544118396416434E-6 4.164293757032946E-6 4.607995619358253E-6 5.086860820119173E-6 5.602115130249138E-6 6.154840454094948E-6 6.745948132745027E-6 7.376152043861349E-6 8.045941801473213E-6 8.755556406694648E-6
9.504958740680114E-6 1.0293811323828187E-5 1.112145378967733E-5 1.1986882537471207E-5 1.2888733033387387E-5 1.3825265226367269E-5 1.4794352529926172E-5 1.5793474795977246E-5 1.681971567048866E-5 1.786976467384227E-5
1.8939924291453324E-5 2.002612229318051E-5 2.112392942420419E-5 2.2228582526542538E-5 2.3335013060616932E-5 2.4437880901921506E-5 2.553161319072955E-5 2.6610447914897637E-5 2.7668481809331086E-5 2.869972206274418E-5
2.969814123520781E-5 3.0657734710778024E-5 3.1572579940323136E-5 3.2436896672400175E-5 3.324510732636725E-5 3.3991896633264455E-5 3.46722696574363E-5 3.52816073161534E-5 3.581571853594515E-5 3.627088822294263E-5
3.664392027975363E-5 3.693217497238316E-5 3.713360003618338E-5 3.72467550081161E-5 3.727082838177454E-5 3.720564729936238E-5 3.705167961870756E-5 3.681002832073218E-5 3.648241835089616E-5 3.607117611421275E-5
3.557920196481067E-5 3.500993614510895E-5 3.4367318734090795E-5 3.365574425677938E-5 3.288001168600001E-5 3.20452706313745E-5 3.1156964558136275E-5 3.022077190908252E-5 2.9242546016504002E-5 2.822825468739056E-5
2.7183920325121268E-5 2.611556141512188E-5 2.502913615184833E-5 2.3930488921476336E-5 2.282530028063566E-5 2.1719040988402993E-5 2.0616930558683384E-5 1.9523900705255774E-5 1.844456395434996E-5 1.7383187601822002E-5
1.634367309588758E-5 1.53295408338802E-5 1.4343920274383936E-5 1.3389545185870241E-5 1.2468753780941528E-5 1.1583493422474323E-5 1.0735329535118912E-5 9.925458313242832E-6 9.154722784722535E-6 8.423631768971778E-6
7.732381256996702E-6 7.080877740636751E-6 6.468763026868819E-6 5.895440090368678E-6 5.360099542583016E-6 4.861746327460937E-6 4.399226291784602E-6 3.9712523208058115E-6 3.5764297767640523E-6 3.2132810280357787E-6
2.8802689094635468E-6 2.5758190092846854E-6 2.2983407346333844E-6 2.0462471656090848E-6 1.8179737673601269E-6 1.6119960906937752E-6 1.4268466547622944E-6 1.2611312709617174E-6 1.1135451360835001E-6 9.828890959327009E-7
8.680865591929936E-7 7.682016265502109E-7 6.824590933725115E-7 6.10267087062285E-7 5.512432140569395E-7 5.052452178673995E-7 4.7240728993259857E-7 4.53183330718383E-7 4.483986304496356E-7 4.5931162785596356E-7
4.876876116162394E-7 5.358864525254012E-7 6.069666938017129E-7 7.048085805835443E-7 8.342588747121572E-7 1.001300573378859E-6 1.2132509248227984E-6 1.4789914042008547E-6 1.8092335695716984E-6 2.2168249514208704E-6
2.7170993271900966E-6 3.328275880784444E-6 4.071911829949117E-6 4.9734131037094175E-6 6.062607547886739E-6 7.374384907522296E-6 8.94940745799885E-6 1.0834894607947722E-5 1.308548405246898E-5 1.5764171090857475E-5
1.89433265160746E-5 2.270579201282005E-5 2.7146050249540786E-5 3.237146480366085E-5 3.8503582710933204E-5 4.567948977831058E-5 5.405320585269657E-5 6.379710401281861E-5 7.510333417684794E-5 8.818522793535467E-5
1.0327865758224926E-4 1.2064331839436388E-4 1.405638992869144E-4 1.633511031457007E-4 1.8934247452043006E-4 2.1890298908337088E-4 2.524253564518297E-4 2.903299857895224E-4 3.330645621953254E-4 3.811031814156159E-4
4.349449910348831E-4 4.95112288158375E-4 5.62148026838933E-4 6.366126932385318E-4 7.190805128503786E-4 8.101349621069676E-4 9.103635663936956E-4 0.0010203519778651858 0.0011406773394637413 0.0012719009560555952
0.0014145603094657597 0.0015691604711834427 0.0017361649843485537 0.001915986304980457 0.002108975910886359 0.002315414204856173 0.0025355003561421683 0.002769342240335923 0.0030169466520767515 0.0032782099770363327
0.00355290951881722 0.003840695682301505 0.004141085217156515 0.004453455723277406 0.004777041613627706 0.005110931719030281 0.0054540687038675175 0.005805250441394846 0.006163133472604206 0.0065262386435700525
0.006892958983376151 0.007261569848589286 0.007630241321464086 0.00799705280838551 0.008360009743324728 0.008717062259208307 0.009066125649035165 0.009405102399288674 0.009731905541645653 0.010044483036097257
0.010340842870220893 0.01061907853623216 0.01087739453023211 0.011114131507236464 0.011327790721454007 0.01151705738402223 0.011680822579974558 0.011818203402391883 0.011928560984085814 0.012011516135213536
0.012066962328227704 0.012095075808688294 0.01209632265078147 0.012071462618915577 0.012021549740479929 0.01194792953875384 0.011852232918078196 0.0117363667348718 0.011602501127117902 0.011453053710934845
0.011290670785304893 0.01111820571467145 0.010938694683809248 0.010755330040186304 0.010571431456201548 0.01039041515757882 0.010215761475334421 0.01005098098771056 0.009899579525937618 0.009765022324324878
0.009650697601623341 0.009559879867425514 0.00949569325502181 0.009461075190926238 0.009458740721338933 0.009491147827046523 0.009560464070371758 0.00966853493024488 0.009816854193540296 0.010006536781566232
0.01023829439891 0.010512414396503085 0.010828742240480296 0.0111866679718572 0.011585117027980036 0.012022545773974217 0.012496942060076148 0.013005831078078282 0.013546286736754462 0.014114948712028074
0.014708045253163174 0.01532142174218153 0.015950574911247694 0.01659069252355312 0.01723669821929132 0.01788330112201757 0.01852504969468979 0.019156389231851208 0.01977172227773058 0.020365471172504323
3.424524950474664E-4 2.809268252818371E-4 2.2989399352667174E-4 1.876738675704022E-4 1.5283474606840348E-4 1.2416038354706507E-4 1.0062072804358929E-4 8.134606897264517E-5 6.560429674983776E-5 5.2780984142637514E-5
4.236201124769825E-5 3.391847051065299E-5 2.7093604526978924E-5 2.1591546818772215E-5 1.716765380697267E-5 1.362023432542348E-5 1.0783500876447441E-5 8.521584113086552E-6 6.723468528556807E-6 5.298722879230398E-6
4.173913357541262E-6 3.2896009045602027E-6 2.5978362845211644E-6 2.060077640961878E-6 1.6454652452909418E-6 1.3293970799927559E-6 1.0923568294765453E-6 9.189528493996537E-7 7.971328228076344E-7 7.17544163496703E-7
6.730148684324188E-7 6.581335248846125E-7 6.689106141153931E-7 7.025061879399286E-7 7.570114886231202E-7 8.312741927865011E-7 9.247587376013813E-7 1.037434678795723E-6 1.1696872762449124E-6 1.3222455408055978E-6
1.4961238378478E-6 1.6925738568387633E-6 1.913044346807726E-6 2.159146505680064E-6 2.432623315389825E-6 2.735321449740024E-6 3.0691646611645355E-6 3.4361277867265737E-6 3.838210711887234E-6 4.277411800191924E-6
4.755700444037283E-6 5.274988520853908E-6 5.837100654061679E-6 6.443743281797673E-6 7.096472630662629E-6 7.796661777889578E-6 8.54546706414437E-6 9.34379419088466E-6 1.0192264400708276E-5 1.1091181195983982E-5
1.2040498099619615E-5 1.3039788001274843E-5 1.4088214661772844E-5 1.5184506966992511E-5 1.6326936529268442E-5 1.751329922852354E-5 1.874090126641347E-5 2.0006550274276687E-5 2.1306551969523696E-5 2.2636712795409422E-5
2.399234890637674E-5 2.5368301776128295E-5 2.675896060941045E-5 2.8158291632642267E-5 2.9559874224772055E-5 3.0956943730181424E-5 3.234244067239989E-5 3.370906596339391E-5 3.50493415809415E-5 3.635567606887283E-5
3.762043410456375E-5 3.8836009277736964E-5 3.999489913699337E-5 4.10897814879486E-5 4.211359087153743E-5 4.305959411474778E-5 4.392146383013673E-5 4.469334874590629E-5 4.536993977549509E-5 4.5946530784520804E-5
4.641907308286409E-5 4.6784222759611604E-5 4.7039380086848085E-5 4.718272034280765E-5 4.721321554317937E-5 4.71306467185245E-5 4.693560653268804E-5 4.662949219840224E-5 4.621448880854599E-5 4.5693543361238935E-5
4.5070329910702815E-5 4.434920642035069E-5 4.35351640268382E-5 4.263376954113562E-5 4.1651102112729044E-5 4.0593685063956466E-5 3.946841396183627E-5 3.828248203366995E-5 3.7043304049833065E-5 3.575843979268016E-5
3.4435518205040725E-5 3.3082163266526634E-5 3.170592258237481E-5 3.0314199589769152E-5 2.8914190192791398E-5 2.7512824531849203E-5 2.6116714479312165E-5 2.4732107332924646E-5 2.3364846055166734E-5 2.202033628283763E-5
2.070352020938242E-5 1.9418857325304874E-5 1.8170311891637375E-5 1.6961346919799056E-5 1.5794924339906626E-5 1.4673510960003243E-5 1.359908975169707E-5 1.2573175943972522E-5 1.159683736673057E-5 1.0670718458900078E-5
9.795067342419163E-6 8.969765362437247E-6 8.194358504944001E-6 7.468090124730319E-6 6.789934448032501E-6 6.158630354242671E-6 5.572714988476744E-6 5.0305568103918954E-6 4.530387743306608E-6 4.0703341503609676E-6
3.648446430267449E-6 3.262727093403954E-6 2.9111572490535786E-6 2.591721506170835E-6 2.3024313630569428E-6 2.0413472359040647E-6 1.8065993527126581E-6 1.5964078182372627E-6 1.4091022382531007E-6 1.2431413786639779E-6
1.0971334281034443E-6 9.698575332089942E-7 8.602873853114634E-7 7.676177576217753E-7 6.912950249074045E-7 6.310528449155442E-7 5.869543441160144E-7 5.594423312330498E-7 5.493992617680208E-7 5.582188961577954E-7
5.878918337261845E-7 6.411073638717676E-7 7.213743538836282E-7 8.331641872904205E-7 9.820790744643293E-7 1.1750493736991008E-6 1.4205638799915674E-6 1.7289373523713232E-6 2.1126198490187806E-6 2.5865527106877227E-6
3.1685762629998234E-6 3.8798944806085485E-6 4.745601952324291E-6 5.795278485054521E-6 7.063656562698722E-6 8.591366608879608E-6 1.0425764562956089E-5 1.2621845639422095E-5 1.5243247273358368E-5 1.836334313120526E-5
2.206642866015086E-5 2.6448996936630527E-5 3.1621101534184836E-5 3.7707800747613924E-5 4.4850674774901766E-5 5.3209404369852664E-5 6.296339604560919E-5 7.431343515253043E-5 8.748334410660529E-5 1.0272161875448834E-4
1.2030301139189698E-4 1.4053002438366594E-4 1.637342737636702E-4 1.9027767773574362E-4 2.2055342078416564E-4 2.5498664028142056E-4 2.9403477921274666E-4 3.381875460936776E-4 3.879664215182714E-4 4.4392365022561585E-4
5.066406582924922E-4 5.767258372255702E-4 6.548116404985521E-4 7.415509435989295E-4 8.376126260284793E-4 9.436763430194667E-4 0.0010604264660204069 0.0011885451842577406 0.0013287047748248185 0.0014815590656580139
0.00164773413423922 0.0018278183046550732 0.002022351526420996 0.0022318142398523697 0.0024566158542852134 0.002697082986611318 0.002953447627848729 0.0032258354242361746 0.003514254276019438 0.0038185834710843915
0.004138563581295677 0.004473787356266291 0.0048236918518066736 0.005187552028051242 0.005564476044893923 0.005953402469650203 0.006353099593691873 0.0067621670311992545 0.007179039744316943 0.007601994605205818
0.008029159567228458 0.008458525475408457 0.008887960501121414 0.009315227138585078 0.009738001652100104 0.010153895814210272 0.010560480727113481 0.010955312473892819 0.011335959303570986 0.01170003001569206
0.01204520317709475 0.01236925677664062 0.012670097903636013 0.012945792023105621 0.013194591416319127 0.013414962358215269 0.01360561061457074 0.013765504860675949 0.013893897649445267 0.013990343589654888
0.014054714433543228 0.014087210816357837 0.014088370437510015 0.014059072522651142 0.014000538457026934 0.013914328531724963 0.01380233479478125 0.013666770047526767 0.013510153072131888 0.013335290218308335
0.013145253514998642 0.012943355506272453 0.012733121039413818 0.012518256257392368 0.012302615067825937 0.012090163376603843 0.011884941387135929 0.011691024276417588 0.011512481567519542 0.011353335525503801
0.01121751891088306 0.0111088324322467 0.011030902248110108 0.010987137877766975 0.010980690892090701 0.01101441476775513 0.011090826301888568 0.011212068998140624 0.011379878848682055 0.011595552948699323
0.011859921389222098 0.012173322879224499 0.012535584547374818 0.012946006366064914 0.013403350623975827 0.013905836847115847 0.01445114253089677 0.015036409996582638 0.01565825962389318 0.016312809637628253
0.016995702540315336 0.017702138185967286 0.018426913383465693 0.019164467803735694 0.01990893584507993 0.020654203988523093 0.021393973052848323 0.022121824640482592 0.022831290953955658 0.023515927061779487
3.3878392089534457E-4 2.779175019656458E-4 2.2743152467389816E-4 1.8566386160901222E-4 1.511981555183892E-4 1.22831197756009E-4 9.954397961540749E-5 8.04761173816352E-5 6.490335583313237E-5 5.221786327489758E-5
4.1911042984974825E-5 3.3558600318033564E-5 2.680762085751248E-5 2.136543227702956E-5 1.699004040327323E-5 1.3481947905056714E-5 1.0677181694953861E-5 8.441372229794023E-6 6.664744214407393E-6 5.2578935914906026E-6
4.148240034390236E-6 3.2770573885618136E-6 2.596996607615796E-6 2.0700267068001126E-6 1.6657291390937343E-6 1.3598898327809888E-6 1.1333409729551757E-6 9.710115297812603E-7 8.611516054284542E-7 7.947009634499659E-7
7.647766930864626E-7 7.662589187964734E-7 7.954568615290575E-7 8.498404581657224E-7 9.278252099428846E-7 1.0286000154120503E-6 1.1519894994707537E-6 1.2983438230704462E-6 1.4684501893869008E-6 1.663461287901522E-6
1.8848367700201195E-6 2.1342945565581873E-6 2.413769362972953E-6 2.725376313605624E-6 3.0713779193873465E-6 3.454153029747595E-6 3.876166651742878E-6 4.33993976848109E-6 4.848018493675767E-6 5.402942076910267E-6
6.00720943077453E-6 6.663243991054191E-6 7.373356848105245E-6 8.139708203989623E-6 8.964267317606674E-6 9.848771199957523E-6 1.0794682414247076E-5 1.180314642068448E-5 1.2874948983104607E-5 1.4010474223095818E-5
1.5209663966144436E-5 1.6471979072206455E-5 1.7796363478831056E-5 1.9181211707231022E-5 2.0624340589353285E-5 2.212296596601814E-5 2.3673685081768006E-5 2.5272465360656343E-5 2.691464018861682E-5 2.8594912252441327E-5
3.030736489333167E-5 3.204548182546125E-5 3.380217544840834E-5 3.556982384854625E-5 3.734031644073779E-5 3.9105108050613025E-5 4.085528108223768E-5 4.2581615259323555E-5 4.427466427368725E-5 4.592483852593585E-5
4.7522493003899826E-5 4.9058019217588624E-5 5.052193999874167E-5 5.190500588140341E-5 5.319829171007627E-5 5.4393292076150476E-5 5.5482014163209635E-5 5.645706658866541E-5 5.731174286350501E-5 5.8040098153679656E-5
5.863701811502999E-5 5.9098278687241974E-5 5.942059586909596E-5 5.9601664654567706E-5 5.9640186484022524E-5 5.9535884753166636E-5 5.928950812064988E-5 5.890282155898801E-5 5.837858529844954E-5 5.772052201530513E-5
5.6933272810060755E-5 5.6022342703865327E-5 5.499403654837208E-5 5.38553863925394E-5 5.261407147623908E-5 5.127833212273142E-5 4.9856878878302836E-5 4.835879829653056E-5 4.6793456786281296E-5 4.517040393687946E-5
4.3499276701734345E-5 4.178970576454482E-5 4.005122533199061E-5 3.829318749603901E-5 3.652468219051168E-5 3.475446363353648E-5 3.2990884003351234E-5 3.1241834943132605E-5 2.9514697334639697E-5 2.781629962394715E-5
2.615288482873158E-5 2.453008620854101E-5 2.295291144003674E-5 2.1425735010781472E-5 1.9952298429828055E-5 1.853571775277396E-5 1.71784978342939E-5 1.5882552653227518E-5 1.4649231004425718E-5 1.3479346817706672E-5
1.2373213347028464E-5 1.1330680471614621E-5 1.0351174364263082E-5 9.433738809203908E-6 8.577077491248628E-6 7.779596628110706E-6 7.039447377125279E-6 6.354567514638083E-6 5.722721959610502E-6 5.141541791157319E-6
4.608561491626201E-6 4.12125423146444E-6 3.677065098767387E-6 3.2734422645887064E-6 2.9078661646262583E-6 2.577876868885601E-6 2.2810999037738394E-6 2.015270886499062E-6 1.7782594306467605E-6 1.5680928856510962E-6
1.3829805831053399E-6 1.2213393812114426E-6 1.0818214270802855E-6 9.633451971172693E-7 8.651310304808087E-7 7.867425416967589E-7 7.281354879631629E-7 6.897158763062392E-7 6.724093270531619E-7 6.777439641259016E-7
7.079493798917032E-7 7.66074522421728E-7 8.561276747535231E-7 9.83242036719716E-7 1.1538707763299491E-6 1.376015784230056E-6 1.6594947342640338E-6 2.01625141645898E-6 2.4607146544388046E-6 3.010211433532922E-6
3.6854401323006914E-6 4.511009949795338E-6 5.516052731902413E-6 6.734913398113747E-6 8.207925028249187E-6 9.98227435778923E-6 1.2112962919686158E-5 1.4663868327562843E-5 1.770890918733172E-5 2.1333315819093046E-5
2.563500733777874E-5 3.072607365121944E-5 3.673435856415898E-5 4.380513740808512E-5 5.210287943901532E-5 6.181308165750851E-5 7.314415671741616E-5 8.632935322584394E-5 1.0162868203515592E-4 1.1933081714417516E-4
1.397549346338109E-4 1.6325244775529656E-4 1.902085909802647E-4 2.2104380064419155E-4 2.5621483492110436E-4 2.9621557142881644E-4 3.4157741696735146E-4 3.928692609386763E-4 4.5069690209240766E-4 5.157018776030601E-4