# vtk DataFile Version 2.0 
Volume data
ASCII
DATASET STRUCTURED_POINTS
DIMENSIONS 300 300 1
SPACING 1 1 1
ORIGIN 0 0 0
POINT_DATA 90000
SCALARS volume_scalars double
LOOKUP_TABLE default 
3.5579648414135143E-4 2.9188887260255436E-4 2.3887630536235339E-4 1.9501519214045883E-4 1.5881954365178249E-4 1.2902682402737476E-4 1.0456763865630332E-4 8.453894692979653E-5 6.818049295084281E-5 5.4854155580926906E-5
4.4025931176569405E-5 3.5250277086565826E-5 2.8156560619839285E-5 2.243737605286803E-5 1.783851073403729E-5 1.4150359971923092E-5 1.1200608771496876E-5 8.848016297213788E-6 6.977155960609771E-6 5.493980083374089E-6
4.322093061760473E-6 3.3996307885363314E-6 2.676656747025846E-6 2.1129966819443033E-6 1.6764441018472127E-6 1.3412781248301084E-6 1.0870434026987124E-6 8.975491182999145E-7 7.600504205799594E-7 6.645812191834534E-7
6.034120820748672E-7 5.706111410632645E-7 5.616894834394623E-7 5.733155613099821E-7 6.03085747023371E-7 6.493403616209025E-7 7.110163565377368E-7 7.875293846214293E-7 8.786792976106619E-7 9.84574191351714E-7
1.1055690204821895E-6 1.2422155501149972E-6 1.3952210283806217E-6 1.565413472204245E-6 1.7537118779404658E-6 1.9611000142034467E-6 2.1886027396890147E-6 2.4372640250958407E-6 2.7081260546351293E-6 3.0022089466526824E-6
3.3204907707388715E-6 3.663887655323551E-6 4.033233879059368E-6 4.4292619243267765E-6 4.852582544244639E-6 5.3036649573267374E-6 5.782817337562726E-6 6.290167812990393E-6 6.825646223211589E-6 7.388966915987783E-6
7.979612885060032E-6 8.596821565588135E-6 9.239572609953227E-6 9.906577964972537E-6 1.0596274561727046E-5 1.130681991117299E-5 1.2036090872578804E-5 1.2781685827816044E-5 1.3540930453011697E-5 1.4310887230583254E-5
1.5088368789947511E-5 1.5869955105114267E-5 1.665201451301462E-5 1.7430728448984697E-5 1.820211972668549E-5 1.896208412034821E-5 1.9706424939123434E-5 2.0430890218061917E-5 2.113121208943672E-5 2.1803147843264782E-5
2.244252213845386E-5 2.3045269787309623E-5 2.3607478507350486E-5 2.4125431016451883E-5 2.4595645840999527E-5 2.501491621244132E-5 2.538034644556887E-5 2.5689385221931273E-5 2.593985524357697E-5 2.6129978775146022E-5
2.6258398655220626E-5 2.6324194429559042E-5 2.6326893337933984E-5 2.6266475971121446E-5 2.6143376503348826E-5 2.5958477496306917E-5 2.5713099361712667E-5 2.5408984658420007E-5 2.504827748530907E-5 2.4633498310836523E-5
2.416751465253598E-5 2.3653508083448678E-5 2.30949380961904E-5 2.249550339812737E-5 2.1859101242221785E-5 2.1189785417094653E-5 2.049172352659625E-5 1.9769154183845477E-5 1.9026344727727528E-5 1.8267550041933502E-5
1.7496973018721662E-5 1.6718727162821034E-5 1.5936801776592338E-5 1.5155030107149643E-5 1.4377060771150586E-5 1.3606332704951425E-5 1.2846053818364267E-5 1.2099183460876894E-5 1.136841874135453E-5 1.0656184677279555E-5
9.964628088708337E-6 9.295615096375038E-6 8.650732033621607E-6 8.031289538753641E-6 7.438329558500609E-6 6.8726349647830085E-6 6.334741466060716E-6 5.824951481082423E-6 5.343349636640191E-6 4.889819551579115E-6
4.464061576324716E-6 4.065611169977698E-6 3.6938576149257914E-6 3.3480627912300097E-6 3.027379759031882E-6 2.730870926180416E-6 2.457525609502757E-6 2.2062768309995666E-6 1.976017224166349E-6 1.7656139601391412E-6
1.5739226380551105E-6 1.3998001186322181E-6 1.2421163143566464E-6 1.0997649837978038E-6 9.716736115544399E-7 8.568124894109509E-7 7.542031488203893E-7 6.629263303282018E-7 5.821297126307361E-7 5.110356633618485E-7
4.489493162628973E-7 3.9526732605227274E-7 3.494877040835755E-7 3.1122119583852286E-7 2.802047265473353E-7 2.5631751487852753E-7 2.3960053777594226E-7 2.302801231604873E-7 2.2879655225811283E-7 2.3583867049381456E-7
2.5238563569807055E-7 2.7975707499248914E-7 3.1967307694945685E-7 3.7432561276737454E-7 4.4646315799657053E-7 5.394904728289328E-7 6.575856913620318E-7 8.058370648833546E-7 9.904018963779643E-7 1.2186903872887932E-6
1.4995772859600022E-6 1.843644371758206E-6 2.2634569198081034E-6 2.7738773574135157E-6 3.392419331999672E-6 4.13964534793557E-6 5.039610980828237E-6 6.120358426799141E-6 7.414461774135473E-6 8.959625878512805E-6
1.0799340063798286E-5 1.2983587042046756E-5 1.5569606433832377E-5 1.8622711060747462E-5 2.221715276591546E-5 2.6437032889737382E-5 3.137725068564913E-5 3.7144480909079976E-5 4.385816956353614E-5 5.1651534360068507E-5
6.067255386826077E-5 7.108492664567636E-5 8.306897887588871E-5 9.682249628060783E-5 1.1256145336732688E-4 1.305206105089244E-4 1.5095394701388515E-4 1.7413489633191553E-4 2.0035634795334718E-4 2.2993037951045024E-4
2.6318768218567076E-4 3.0047664288625827E-4 3.4216204786339496E-4 3.8862337463535783E-4 4.402526423051198E-4 4.974517947136205E-4 5.606295963902415E-4 6.301980279761689E-4 7.065681756996927E-4 7.901456185368158E-4
8.813253268219947E-4 9.804860971691998E-4 0.0010879845604703853 0.0012041488122634498 0.001329271727672365 0.0014636040361493234 0.0016073472440898465 0.0017606465057167368 0.0019235835540871238 0.0020961698143050125
0.002278339829653375 0.002469945138036419 0.0026707487405037912 0.0028804203054051095 0.0030985322506276616 0.003324556842189579 0.0035578644400459545 0.003797723011240887 0.004043299016511325 0.004293659759212165
0.004547777265170357 0.00480453373906484 0.005062728617532688 0.005321087211866839 0.0055782709044206865 0.005832888833254351 0.006083510969782727 0.006328682464884342 0.006566939110786818 0.006796823739737194
0.007016903356648031 0.007225786782192168 0.007422142565744464 0.00760471691460073 0.007772351377407461 0.007924000015964881 0.008058745800655595 0.008175815970711927 0.008274596111250811 0.008354642714237736
0.008415694009937216 0.008457678878510861 0.008480723677691227 0.00848515685127789 0.00847151121391335 0.008440523839515475 0.008393133513188029 0.008330475738740139 0.008253875325505705 0.008164836608415835
0.008065031383776766 0.00795628466957337 0.007840558423091122 0.007719933370072569 0.007596589118450866 0.0074727827459867115 0.007350826065018605 0.007233061779235632 0.00712183875716553 0.007019486655237574
0.0069282901301334415 0.006850462885964723 0.006788121806852149 0.006743261429902497 0.0067177290174704925 0.006713200490940372 0.0067311574909399135 0.0067728658306691145 0.00683935560953675 0.006931403253100836
0.007049515741871035 0.007193917285260124 0.007364538687245828 0.007561009636505134 0.007782654135332402 0.008028489258050928 0.008297227400491264 0.008587282147209553 0.008896777842408055 0.00922356290416303
0.009565226869956664 0.009919121105282404 0.010282383047120564 0.010651963791466884 0.011024658770152376 0.01139714119840871 0.011765997912638805 0.012127767159362517 0.012478977843074618 0.012816189694497888
3.5401417198079716E-4 2.904268292519106E-4 2.3767996156076273E-4 1.9403871814860103E-4 1.580245593301957E-4 1.2838128012642203E-4 1.0404485011950072E-4 8.411676056996829E-5 6.78405733984591E-5 5.458137490230703E-5
4.3807848997964375E-5 3.507669942471987E-5 2.8019166900797487E-5 2.232940499237816E-5 1.7754496851670724E-5 1.4085913516227537E-5 1.115223274627301E-5 8.81295510209908E-6 6.953270896438976E-6 5.479647628989883E-6
4.316122409350054E-6 3.4011976347770645E-6 2.685250783075219E-6 2.1283806123262743E-6 1.6986223561495895E-6 1.370473712188527E-6 1.1236816023643755E-6 9.422469049014954E-7 8.136106943733333E-7 7.27991053655016E-7
6.778443173901969E-7 6.574287453586453E-7 6.624521778476403E-7 6.897882616104705E-7 7.372484173661196E-7 8.033989061123866E-7 8.874141946201839E-7 9.889593679648305E-7 1.1080956313717625E-6 1.2452040227087298E-6
1.4009233537988549E-6 1.57609914230512E-6 1.7717409113409972E-6 1.988985742797624E-6 2.2290663911144457E-6 2.4932826125330213E-6 2.7829746539671813E-6 3.0994980865262618E-6 3.4441993705715016E-6 3.818391709444946E-6
4.223330893730041E-6 4.6601909618987236E-6 5.130039610230632E-6 5.633813377822297E-6 6.172292713445779E-6 6.746077101450273E-6 7.355560484788491E-6 8.000907275140315E-6 8.68202928322323E-6 9.398563936703464E-6
1.0149854178469581E-5 1.0934930454121078E-5 1.1752495204042015E-5 1.260091027208235E-5 1.3478187629436628E-5 1.4381983788688409E-5 1.5309598249232283E-5 1.6257976271629155E-5 1.7223716225341396E-5 1.8203081692400408E-5
1.9192018439777952E-5 2.0186176296689635E-5 2.1180935891101447E-5 2.2171440113874332E-5 2.315263009098788E-5 2.411928535598292E-5 2.506606782810072E-5 2.5987569118579385E-5 2.687836061019495E-5 2.7733045685354022E-5
2.8546313417704937E-5 2.9312992993014648E-5 3.0028108088438097E-5 3.068693041650266E-5 3.12850316320612E-5 3.181833280772879E-5 3.2283150706138354E-5 3.267624011559955E-5 3.2994831568905426E-5 3.323666383222372E-5
3.3400010630999796E-5 3.348370117101888E-5 3.348713411338455E-5 3.341028477006462E-5 3.325370539955966E-5 3.301851859773981E-5 3.2706403894494674E-5 3.231957778006048E-5 3.1860767493302876E-5 3.133317900554948E-5
3.074045972566497E-5 3.0086656533075422E-5 2.9376169813786274E-5 2.861370422883631E-5 2.780421698417339E-5 2.6952864395088305E-5 2.606494754691983E-5 2.514585784696521E-5 2.4201023240942693E-5 2.3235855831857145E-5
2.225570159090638E-5 2.126579279058959E-5 2.0271203721103395E-5 1.9276810174268063E-5 1.8287253096553453E-5 1.7306906726263933E-5 1.6339851441590058E-5 1.538985145798765E-5 1.4460337427049669E-5 1.3554393906401762E-5
1.2674751592713806E-5 1.1823784139002316E-5 1.1003509314109331E-5 1.0215594207437086E-5 9.461364136313827E-6 8.74181487712819E-6 8.05762781472684E-6 7.4091875874276315E-6 6.79660179705677E-6 6.2197223541922E-6
5.678168037654139E-6 5.17134786347028E-6 4.698484881212493E-6 4.258640043851069E-6 3.850735830172004E-6 3.4735793354305568E-6 3.125884585383567E-6 2.8062938703265076E-6 2.513397938522533E-6 2.245754931815028E-6
2.001907989757383E-6 1.780401491903734E-6 1.5797959507642768E-6 1.398681610277052E-6 1.2356908465843847E-6 1.0895095096903289E-6 9.588873866403207E-7 8.426480097876469E-7 7.396980782271696E-7 6.490368074581194E-7
5.697655727874324E-7 5.01098267018165E-7 4.423728537921033E-7 3.9306466585055717E-7 3.5280207376203434E-7 3.2138523666826984E-7 2.9880874361540433E-7 2.852890632798677E-7 2.812978424461027E-7 2.876022303209567E-7
3.0531355727486114E-7 3.359458631160748E-7 3.814859513038267E-7 4.444768407934171E-7 5.281166949999909E-7 6.363755253754063E-7 7.741321920796476E-7 9.473344518821842E-7 1.1631850282261786E-6 1.4303568934686664E-6
1.759241150358705E-6 2.16223106897231E-6 2.6540459651161503E-6 3.252098683528907E-6 3.976910459323772E-6 4.85257685776402E-6 5.9072883180056924E-6 7.173908532090706E-6 8.690613456628841E-6 1.0501593161288084E-5
1.2657817945595255E-5 1.5217869184618392E-5 1.82488341774383E-5 2.1827262854947175E-5 2.604018254391511E-5 3.098616507543596E-5 3.677643836643708E-5 4.3536032198372384E-5 5.1404945280964375E-5 6.053931784350332E-5
7.111259097451328E-5 8.331663077635061E-5 9.736279217015603E-5 1.1348289394628352E-4 1.3193007348597131E-4 1.5297948657368914E-4 1.7692881497956235E-4 2.040985421308705E-4 2.3483195533224556E-4 2.6949483176320015E-4
3.084747650090984E-4 3.5218008929710205E-4 4.0103836003690165E-4 4.554943518227283E-4 5.160075388398784E-4 5.83049027718325E-4 6.570979193460023E-4 7.3863708402364E-4 8.281483436060452E-4 9.261070648868042E-4
0.001032976180357695 0.0011491996654783361 0.0012751955155467145 0.0014113482799408333 0.0015580012266331097 0.0017154482251470903 0.0018839254511756184 0.0020636030305242353 0.0022545767534721674 0.0024568600026298806
0.0026703760474872944 0.0028949508666701517 0.0031303066640549332 0.00337605624697243 0.0036316984334434643 0.003896614650487339 0.004170066876849889 0.0044511970709246226 0.004739028208196548 0.005032467032332211
0.005330308600287914 0.005631242674834535 0.005933861988127391 0.00623667236790879 0.00653810468423142 0.006836528539919133 0.007130267593083343 0.007417616365671524 0.007696858359040854 0.007966285266720639
0.008224217046618257 0.008469022590649522 0.00869914070977449 0.008913101137235207 0.00910954524285246 0.009287246146841142 0.009445127922907559 0.009582283587408917 0.00969799158394921 0.009791730490677353
0.009863191700328422 0.009912289850172312 0.009939170809867637 0.009944217069043951 0.009928050402479507 0.009891531728200667 0.00983575811190199 0.009762056908995828 0.009671977072626048 0.009567277691477001
0.009449913854629318 0.009322019971623722 0.009185890703982581 0.00904395968952281 0.008898776262815973 0.008752980394173814 0.008609276085725627 0.00847040347676042 0.008339109921845982 0.00821812031465993
0.008110106938331288 0.00801765912973133 0.007943253050852 0.007889221865376423 0.007857726622883584 0.007850728156826725 0.007869960305341095 0.007916904765797157 0.007992767894417097 0.008098459760695597
0.008234575762192449 0.008401381097808703 0.00859879838619599 0.008826398699762336 0.009083396263153777 0.00936864703752819 0.009680651377948303 0.01001756091053757 0.010377189728608247 0.010757029952977311
0.011154271641589152 0.011565826968100518 0.01198835851926697 0.012418311488086045 0.012851949465224433 0.013285393457020456 0.013714663686203873 0.014135723663409394 0.014544525955619024 0.014937059023853259
3.515320933292744E-4 2.8839074457922057E-4 2.360138757049082E-4 1.9267880604773068E-4 1.5691736958880998E-4 1.2748217699307904E-4 1.0331666713817729E-4 8.35286413362766E-5 6.736697699608163E-5 5.420122568128588E-5
4.3503812359201914E-5 3.483456717506924E-5 2.7827337526983552E-5 2.2178445861109284E-5 1.763677687320488E-5 1.3995296208262724E-5 1.1083820905996061E-5 8.762879440349537E-6 6.918516014648791E-6 5.457909633436667E-6
4.30569326568213E-6 3.4008720765575284E-6 2.6942522092605947E-6 2.14630294812681E-6 1.7253853174021772E-6 1.4062893126808406E-6 1.1690300835451065E-6 9.978605546983423E-7 8.80464262525511E-7 8.072976706542303E-7
7.710559879199225E-7 7.662406196553498E-7 7.888099098603702E-7 8.358978449754707E-7 9.055879524365453E-7 9.96731796653641E-7 1.1088033040725518E-6 1.2417816849093963E-6 1.3960570043213782E-6 1.5723535277097874E-6
1.771666856545176E-6 1.995211611375659E-6 2.2443770325088467E-6 2.52068837774906E-6 2.825772418899285E-6 3.161325690083975E-6 3.529084434421166E-6 3.93079544209325E-6 4.368187181445249E-6 4.842940802717304E-6
5.356660747283525E-6 5.910844828461125E-6 6.506853766633154E-6 7.145880264242366E-6 7.82891779703116E-6 8.55672937795098E-6 9.32981662013561E-6 1.0148389485497136E-5 1.1012337155804098E-5 1.1921200503243015E-5
1.287414666699679E-5 1.3869946260770336E-5 1.4906953742918188E-5 1.59830914754048E-5 1.7095837979893065E-5 1.8242220868614274E-5 1.9418814884340865E-5 2.0621745428020936E-5 2.184669788497777E-5 2.308893298185139E-5
2.434330831778513E-5 2.5604306116150292E-5 2.6866067139056006E-5 2.8122430597949698E-5 2.9366979781951524E-5 3.059309301352821E-5 3.1793999431161554E-5 3.296283899334837E-5 3.409272600011309E-5 3.5176815339694316E-5
3.620837059152267E-5 3.718083305417187E-5 3.8087890720511E-5 3.8923546193357917E-5 3.968218252469766E-5 4.035862597073778E-5 4.094820468401782E-5 4.144680241230408E-5 4.18509063414296E-5 4.215764830446623E-5
4.236483868107486E-5 4.24709924265858E-5 4.2475346797973696E-5 4.2377870480746035E-5 4.2179263963972015E-5 4.1880951157167845E-5 4.148506238938124E-5 4.0994409074426264E-5 4.0412450463733133E-5 3.974325303678693E-5
3.89914431959485E-5 3.816215403520879E-5 3.72609670391083E-5 3.62938496370522E-5 3.526708958840843E-5 3.418722720440909E-5 3.306098642375414E-5 3.1895205750217996E-5 3.069677003317737E-5 2.947254402695571E-5
2.8229308603725355E-5 2.6973700419267576E-5 2.5712155743273903E-5 2.4450859068403624E-5 2.3195697007447704E-5 2.195221787821825E-5 2.0725597263715233E-5 1.952060972318627E-5 1.8341606720235273E-5 1.7192500729317043E-5
1.607675538372633E-5 1.4997381438230721E-5 1.3956938239210982E-5 1.2957540325644023E-5 1.2000868726276833E-5 1.1088186472355233E-5 1.0220357811451164E-5 9.397870586155029E-6 8.62086123127993E-6 7.889141844150287E-6
7.202228793712247E-6 6.5593723546432585E-6 5.959586881276435E-6 5.401681071840311E-6 4.8842879150598635E-6 4.405893957391671E-6 3.964867578939018E-6 3.559486018349275E-6 3.1879609407857344E-6 2.8484623975655946E-6
2.539141080601836E-6 2.258148828883733E-6 2.003657397571429E-6 1.7738755527509368E-6 1.5670646065820776E-6 1.3815525587610092E-6 1.215747061396077E-6 1.0681474762385557E-6 9.373563465816237E-7 8.220906620743632E-7
7.211933543828747E-7 6.336455263936839E-7 5.585799889337527E-7 4.952967582997808E-7 4.432812568193557E-7 4.022260587908375E-7 3.720571370107364E-7 3.529656921459187E-7 3.4544678973000604E-7 3.5034618860735433E-7
3.6891692093542687E-7 4.0288737768031705E-7 4.5454286465239E-7 5.268228216143451E-7 6.234361391332049E-7 7.489972619708752E-7 9.091860301410463E-7 1.1109344742674646E-6 1.3626440441066154E-6 1.674437000028092E-6
2.0584459271596622E-6 2.5291455292734696E-6 3.103731010902979E-6 3.802547446306544E-6 4.649574545515332E-6 5.672971141805715E-6 6.9056835208945694E-6 8.386121368006618E-6 1.015890460178842E-5 1.227568367048567E-5
1.4796034982681167E-5 1.778843200998194E-5 2.1331291211975947E-5 2.5514090277051158E-5 3.043855423280785E-5 3.621990274861427E-5 4.298814942874593E-5 5.0889441083910045E-5 6.008742188748062E-5 7.076460399688797E-5
8.312372268857702E-5 9.738905036800096E-5 1.1380764003926016E-4 1.326504650314466E-4 1.5421341807410859E-4 1.7881812930016874E-4 2.0681255955181486E-4 2.3857132260580034E-4 2.744956877611632E-4 3.150132127934514E-4
3.605769567271677E-4 4.116642223637003E-4 4.687747801714388E-4 5.324285281332175E-4 6.031625465724174E-4 6.815275129395516E-4 7.680834491037736E-4 8.633947828919494E-4 9.680247164452015E-4 0.0010825289063669619
0.0012074484745160537 0.001343302383498479 0.0014905792272231356 0.0016497285040449625 0.001821151457705242 0.0020051915891244865 0.0022021249596936095 0.0024121504235920382 0.0026353799423565407 0.0028718291489338407
0.0031214083402716104 0.0033839140866448497 0.0036590216519118627 0.003946278421322132 0.004245098531991221 0.004554758895423386 0.0048743967912967135 0.00520300919702466 0.0055394539983824815 0.005882453202863942
0.006230598249666379 0.006582357478668715 0.006936085785965199 0.007290036456061911 0.0076423751214491275 0.007991195759733548 0.008334538597721198 0.008670409751701214 0.008996802394629256 0.00931171920487839
0.009613195818610533 0.009899324979459004 0.010168281055849406 0.010418344578555264 0.010647926439489044 0.010855591387615975 0.01104008045943338 0.011200331989696577 0.01133550086283411 0.011444975686454114
0.011528393595014395 0.011585652423486456 0.011616920026940484 0.011622640561573977 0.011603537584896323 0.011560613876624111 0.011495147926398951 0.011408687078801378 0.011303037369455565 0.011180250127543883
0.011042605459135815 0.010892592761872046 0.010732888454366128 0.010566331132976276 0.010395894394289694 0.01022465758382167 0.010055774750253871 0.009892442100314867 0.009737864262508495 0.009595219678732643
0.009467625451821306 0.009358101984581126 0.009269537752314061 0.009204654556366517 0.009165973611050008 0.009155782820331679 0.009176105603836693 0.00922867163362544 0.009314889843443636 0.009435824070093635
0.009592171681526046 0.009784245537409664 0.010011959614465129 0.010274818609912681 0.010571911811204173 0.010901911488110034 0.01126307602369295 0.011653257953408528 0.012069917026463404 0.012510138340851535
0.012970655533709269 0.013447878932630872 0.013937928492544431 0.014436671258152652 0.014939763005562563 0.015442693630575462 0.015940835767382925 0.016429496042434075 0.016903968296371565 0.017359588044503653
3.483651297726671E-4 2.8579283502943876E-4 2.3388805526597525E-4 1.9094363788625896E-4 1.5550465279183499E-4 1.2633495861813003E-4 1.0238752433947163E-4 8.277820221841099E-5 6.676265158232951E-5 5.3716121045481823E-5
4.311580852545605E-5 3.452553281378219E-5 2.7582466751648956E-5 2.1985699547248562E-5 1.7486413872771288E-5 1.3879481618601754E-5 1.0996300174071144E-5 8.698708545288E-6 6.873839281655779E-6 5.429777898177412E-6
4.2919161397543994E-6 3.399898971653386E-6 2.705077570275595E-6 2.168391834005901E-6 1.758616062857434E-6 1.450910513613354E-6 1.225629583069508E-6 1.0673444735302653E-6 9.6404442494507E-7 9.064860324540188E-7
8.876648822003651E-7 9.023878059494919E-7 9.469275471871995E-7 1.0187446148407005E-6 1.1162636378499422E-6 1.2386936818151645E-6 1.385883800025862E-6 1.5582066123786485E-6 1.7564639790681907E-6 1.9818098987707554E-6
2.2356866461377768E-6 2.519770899425398E-6 2.835927220841483E-6 3.1861667610675624E-6 3.572609483663732E-6 3.997448560152261E-6 4.46291588548337E-6 4.9712479171015804E-6 5.524651257812036E-6 6.125267590261331E-6
6.775137734789588E-6 7.476164747097311E-6 8.230076100914401E-6 9.038385116031749E-6 9.902351895226613E-6 1.08229441256889E-5 1.1800798181890188E-5 1.283618103735332E-5 1.392895355206977E-5 1.5078535749732155E-5
1.628387473371764E-5 1.7543415912039517E-5 1.8855078208466814E-5 2.021623392898784E-5 2.1623693929222897E-5 2.307369868896112E-5 2.4561915844679656E-5 2.6083444659988925E-5 2.7632827828084452E-5 2.9204070900493437E-5
3.079066952408245E-5 3.2385644545216864E-5 3.3981584908270187E-5 3.557069813782067E-5 3.7144868052587224E-5 3.8695719217410035E-5 4.02146875004839E-5 4.1693095969820756E-5 4.312223523875184E-5 4.4493447258304776E-5
4.5798211457467236E-5 4.702823205337135E-5 4.817552529467213E-5 4.923250536480105E-5 5.019206765882583E-5 5.1047668159294224E-5 5.179339767304869E-5 5.2424049752362466E-5 5.293518120903287E-5 5.3323164237868176E-5
5.358522929433422E-5 5.3719498017477286E-5 5.372500565065126E-5 5.360171258567706E-5 5.335050483719899E-5 5.2973183439289985E-5 5.247244294181853E-5 5.1851839365733265E-5 5.111574815035546E-5 5.026931278831472E-5
4.93183849915224E-5 4.8269457361550706E-5 4.7129589647423237E-5 4.590632976109621E-5 4.460763078435033E-5 4.3241765239559235E-5 4.1817237910560606E-5 4.034269848897986E-5 3.882685528672197E-5 3.727839119839922E-5
3.570588302011131E-5 3.411772513557219E-5 3.2522058469755565E-5 3.0926705486946275E-5 2.9339111877446487E-5 2.7766295438389737E-5 2.621480251236575E-5 2.46906722059742E-5 2.3199408471971E-5 2.174596000608656E-5
2.0334707785344543E-5 1.8969459960916774E-5 1.765345371698989E-5 1.6389363619162512E-5 1.5179315902528757E-5 1.4024908091417073E-5 1.2927233299945594E-5 1.1886908534970617E-5 1.0904106310154655E-5 9.978588880985968E-6
9.109744424620192E-6 8.296624514162221E-6 7.53798227309471E-6 6.832310640525245E-6 6.177880230257848E-6 5.572776324894674E-6 5.014934608791488E-6 4.502175309366138E-6 4.032235483773017E-6 3.6027992562443088E-6
3.2115258795959627E-6 2.8560755618456775E-6 2.5341330651671005E-6 2.243429149324003E-6 1.981759995350064E-6 1.7470048078729483E-6 1.5371418566767942E-6 1.3502632806418161E-6 1.184589041106671E-6 1.0384804781878732E-6
9.104539940709061E-7 7.991954633340999E-7 7.035760536882475E-7 6.226702329239902E-7 5.557768412257195E-7 5.024442242188258E-7 4.625005530032991E-7 4.36090604716995E-7 4.237204424009904E-7 4.2631161736173447E-7
4.452667217102803E-7 4.825483436751695E-7 5.407737233655738E-7 6.233276708570352E-7 7.344965897948702E-7 8.796267450596635E-7 1.0653102180248613E-6 1.2996023016940046E-6 1.5922743930152675E-6 1.955106731587594E-6
2.402225601465836E-6 2.9504898424013553E-6 3.6199316929812924E-6 4.434257092878278E-6 5.42141058471637E-6 6.614209855726348E-6 8.051054721355454E-6 9.776714951703227E-6 1.184320075035482E-5 1.4310718886640397E-5
1.7248716429539478E-5 2.0737012708454763E-5 2.4867018509150912E-5 2.974303958188499E-5 3.5483659277434856E-5 4.222319252581596E-5 5.0113200430084564E-5 5.932405147121723E-5 7.004651172791971E-5 8.249334263816719E-5
9.69008807119066E-5 1.1353056930638185E-4 1.3267040817275565E-4 1.5463628206744285E-4 1.7977312540294805E-4 2.0845587581651764E-4 2.4109016580128124E-4 2.781126983281896E-4 3.199912498533933E-4 3.6722424242827893E-4
4.203398259854158E-4 4.798944124396438E-4 5.464706051895756E-4 6.206744710884423E-4 7.031321071128596E-4 7.944854609063122E-4 8.953873731899936E-4 0.0010064958207560762 0.0011284673513799568 0.001261949716447602
0.0014075737232735121 0.0015659443468036597 0.0017376311594120813 0.001923158157501038 0.002122993084231201 0.0023375363685105817 0.002567109820875201 0.0028119452465740317 0.003072173154465254 0.0033478117566599457
0.003638756467627647 0.00394477012213317 0.004265474138362055 0.004600340855419169 0.004948687272624145 0.005309670411338368 0.005682284508203063 0.006065360231525826 0.006457566090136308 0.006857412176488429
0.007263256353412023 0.0076733129571522635 0.008085664048760915 0.008498273202235923 0.008909001771879867 0.009315627534099362 0.00971586555131308 0.010107391058843816 0.010487864130732832 0.010854955838418516
0.01120637557821052 0.01153989921044047 0.011853397625951981 0.012144865334945009 0.012412448659698455 0.01265447310676625 0.012869469496092396 0.013056198434137115 0.013213672735362976 0.013341177420916105
0.013438286954487469 0.013504879412422822 0.013541147327295326 0.013547604990380985 0.013525092047727495 0.01347477327568315 0.013398134473758032 0.013296974464461837 0.013173393240313545 0.013029776346662867
0.012868775634551194 0.012693286559972232 0.012506422244140926 0.012311484543487773 0.012111932407981842 0.011911347832128846 0.01171339972481376 0.011521806042401784 0.011340294544605532 0.011172562545049298
0.011022236038702653 0.010892828596878812 0.010787700427691109 0.010710018006025508 0.010662714682373526 0.01064845268427651 0.010669586927483005 0.010728131055859486 0.010825726129091119 0.010963612374574591
0.011142604413817196 0.011363070363199813 0.011624915193168625 0.01192756870782859 0.012269978477617401 0.012650608020459888 0.013067440480936979 0.013517988002186952 0.013999306921410408 0.014508018847226481
0.01504033759633515 0.015592101878964091 0.016158813528775833 0.016735680975004826 0.017317667554629396 0.01789954416268921 0.01847594564197922 0.019041430221969358 0.01959054123365385 0.02011787025482042
3.445321656107278E-4 2.826486025055627E-4 2.3131519858856208E-4 1.8884359512468725E-4 1.5379488173403386E-4 1.2494653079982653E-4 1.0126304595536329E-4 8.187002397512206E-5 6.603133286419662E-5 5.3129116986005246E-5
4.2646351670019065E-5 3.4151683993411754E-5 2.728631254238111E-5 2.1752676251814862E-5 1.73047403239282E-5 1.3739685264813057E-5 1.0890822870977545E-5 8.621580246324993E-6 6.820409406683258E-6 5.396495570238331E-6
4.276151728464954E-6 3.399800479324252E-6 2.719456356041152E-6 2.1966330043217304E-6 1.8006095757420433E-6 1.5069996604924901E-6 1.296574036938483E-6 1.1542955355740528E-6 1.0685304731779948E-6 1.0304064840130855E-6
1.0332912335342038E-6 1.072370519437608E-6 1.1443077151596616E-6 1.2469694583686146E-6 1.3792049932893764E-6 1.5406686976481299E-6 1.731677114340891E-6 1.9530933112736386E-6 2.206232651913202E-6 2.4927851109332305E-6
2.814750146506557E-6 3.174380871732527E-6 3.574134877058979E-6 4.0166295645823935E-6 4.504600281895733E-6 5.0408599030203544E-6 5.628258809738363E-6 6.269644488956817E-6 6.967820189258645E-6 7.725502279482954E-6
8.54527612948051E-6 9.429550492251161E-6 1.0380510510492424E-5 1.1400069601202784E-5 1.2489820590584456E-5 1.3650986578586827E-5 1.4884372107956307E-5 1.6190315296099202E-5 1.756864165857598E-5 1.901862040955262E-5
2.053892406584034E-5 2.2127592206039012E-5 2.378200024360602E-5 2.549883406140555E-5 2.7274071324690864E-5 2.9102970239076286E-5 3.098006644978333E-5 3.289917868862248E-5 3.485342366658895E-5 3.6835240583868266E-5
3.883642548721734E-5 4.084817554933135E-5 4.286114317861499E-5 4.4865499693826056E-5 4.685100811980873E-5 4.880710448171108E-5 5.072298679961257E-5 5.25877108174217E-5 5.439029134327954E-5 5.6119807937459505E-5
5.7765513561622434E-5 5.9316944703666246E-5 6.076403141828989E-5 6.2097205677235E-5 6.330750640683247E-5 6.438667960517005E-5 6.532727197737128E-5 6.612271660487344E-5 6.676740927216247E-5 6.725677421039245E-5
6.758731817917874E-5 6.77566719924475E-5 6.776361879781265E-5 6.760810863728265E-5 6.72912590455692E-5 6.681534167597273E-5 6.618375517774224E-5 6.540098477791537E-5 6.447254924002765E-5 6.340493607709914E-5
6.220552608267659E-5 6.0882508407644574E-5 5.944478754880621E-5 5.7901883725312445E-5 5.6263828199036925E-5 5.454105514386367E-5 5.2744291686210885E-5 5.08844477253954E-5 4.8972507098757894E-5 4.7019421584640155E-5
4.5036009138741806E-5 4.3032857639026655E-5 4.1020235274567695E-5 3.9008008558219295E-5 3.7005568775705817E-5 3.5021767508651376E-5 3.306486169028208E-5 3.114246847394825E-5 2.926153001997613E-5 2.7428288139124796E-5
2.5648268574198125E-5 2.3926274557825237E-5 2.2266389156312318E-5 2.0671985798512254E-5 1.9145746296104735E-5 1.768968558826076E-5 1.630518238963655E-5 1.4993014885803617E-5 1.3753400603954908E-5 1.2586039588045657E-5
1.149016002513812E-5 1.0464565502071472E-5 9.507683116940034E-6 8.617611726380289E-6 7.792169675426178E-6 7.0289414297869935E-6 6.325322608989731E-6 5.6785630011763625E-6 5.0858072248950026E-6 4.544132788605759E-6
4.050585383715883E-6 3.602211330900464E-6 3.196087181677319E-6 2.829346557406452E-6 2.499204386095043E-6 2.2029787739342772E-6 1.9381108239971713E-6 1.7021827898974961E-6 1.492935028635643E-6 1.308282295774714E-6
1.1463300091671567E-6 1.005391196555201E-6 8.840049395258455E-7 7.809572336648578E-7 6.953053045461905E-7 6.264065536517778E-7 5.739534596249117E-7 5.380159304712412E-7 5.190927932626769E-7 5.181743210699227E-7
5.36817933297125E-7 5.772394657770231E-7 6.424226906246187E-7 7.362500717472181E-7 8.636580677760462E-7 1.0308206364303157E-6 1.2453649478558882E-6 1.516623672487354E-6 1.8559285627275405E-6 2.276950386357657E-6
2.7960905799124345E-6 3.4329302566486712E-6 4.210742408017487E-6 5.157073258933229E-6 6.304398752266999E-6 7.69086202109767E-6 9.361097430360543E-6 1.1367146302863175E-5 1.3769468757114726E-5 1.663805514437025E-5
2.0053639348297187E-5 2.410901467259246E-5 2.891045116209562E-5 3.45792109577308E-5 4.125315565669368E-5 4.9088436625581646E-5 5.8261255793459334E-5 6.896968064281389E-5 8.143549294026807E-5 9.590604624157593E-5
1.1265610241869709E-4 1.3198961246004023E-4 1.5424140167639866E-4 1.7977871431202312E-4 2.0900256753954074E-4 2.4234886005493187E-4 2.802891761481262E-4 3.2333122238545987E-4 3.720188310946459E-4 4.269314628926881E-4